25
Properties=species:S:1:pos:R:3:MACE_forces:R:3 Energy=-0.4775343029160025 MACE_energy=0.24489998817443848 pbc="F F F"
C        5.21020000       2.24450000      -1.57850000      -0.19198164      -0.15063223       0.23285407
C        4.20290000       2.56220000      -0.49560000       0.08080804       0.21177888      -0.07200770
O        3.76590000       1.31740000       0.07960000       0.66359508       0.00446665      -0.88998377
C        2.86590000       1.39910000       1.06820000      -0.47494638       0.95914495       0.48399287
O        2.40460000       2.43040000       1.48470000      -0.15474439      -0.73138666       0.07753339
C        2.54040000       0.01270000       1.61200000      -0.02034850       0.14859445      -0.17866382
C        1.26510000       0.00000000       2.40490000       0.12468962       0.24092567      -0.22600688
C       -0.00000000       0.00000000       1.77200000       0.18135113       0.02175213      -0.08390581
S        0.00000000       0.00000000       0.00000000       0.87332463      -0.10019094       0.24650881
C       -1.14320000       0.01320000       2.58250000      -0.54286158       0.02596508       0.07092141
C       -0.99840000       0.03310000       3.96980000       0.45908707       0.03281179       0.00151806
N        0.17900000       0.04290000       4.58720000      -0.67837620      -0.04049520       0.17985211
C        1.27040000       0.02960000       3.81300000      -0.18034139       0.06589050      -0.14972353
C        2.54070000       0.04770000       4.50670000       0.47724891       0.04820066      -0.14146167
N        3.57320000       0.05740000       5.03510000      -0.12785041       0.03414200       0.31667876
H        4.75950000       1.61620000      -2.36200000       0.08633457       0.09099375       0.04041934
H        5.56810000       3.17580000      -2.04390000       0.14981221      -0.15694410      -0.16325718
H        6.07760000       1.70920000      -1.16330000      -0.08088462       0.08464936      -0.08711950
H        3.32320000       3.09650000      -0.88870000      -0.04579200      -0.13651656       0.27017853
H        4.63230000       3.19000000       0.30150000      -0.25811940      -0.17001796       0.05659486
H        3.39390000      -0.28920000       2.23880000      -0.11800297      -0.43960825      -0.13175261
H        2.50200000      -0.69680000       0.77120000      -0.03741025      -0.05616071       0.11831374
Au      -2.20660000      -0.08920000      -0.63800000      -0.42432562       0.06109662      -0.09343638
H       -2.13880000       0.01230000       2.13610000       0.11427096      -0.02333101       0.08279619
H       -1.88810000       0.04440000       4.60890000       0.12546316      -0.02512876       0.03915673
48
Properties=species:S:1:pos:R:3:MACE_forces:R:3 Energy=3.5567862618807484 MACE_energy=2.620455026626587 pbc="F F F"
C        1.60800000      -0.03160000      10.53490000       0.01533313      -0.01251268       0.12163550
C        1.29440000      -0.35530000       9.11280000       0.16735467      -0.17904590      -0.07506541
C        0.26590000       0.05500000       8.30890000      -0.13200995       0.07492149      -0.02544346
C        0.49460000      -0.45090000       6.97590000       0.00357112       0.02403625      -0.01867765
C       -0.40420000      -0.23680000       5.88970000       0.19914651       0.01854970      -0.01639442
C       -0.21460000      -0.18770000       4.52590000      -0.07926856      -0.00313435      -0.25252491
C        1.09620000      -0.01330000       3.84650000       0.17977035      -0.02253505      -0.00629576
O        2.14450000       0.14970000       4.45050000       0.38450024       0.30998546       0.03103982
N        1.09750000       0.00000000       2.44920000       0.31437576       0.00546322      -0.06085512
C       -0.00000000      -0.00000000       1.77190000      -0.41961527       0.07797784      -0.58852112
S        0.00000000       0.00000000       0.00000000      -0.19554304       0.08927304       0.41423249
N       -1.26860000      -0.00810000       2.32900000      -0.13630582       0.28247085       0.04221001
C       -1.45750000      -0.08470000       3.73330000      -0.10755846      -0.01153808       0.12322083
O       -2.58800000      -0.07770000       4.17830000      -0.30323416      -0.14363866      -0.23285750
C       -2.43280000       0.15090000       1.51520000       0.23268226      -0.05320491      -0.00953622
C       -3.13190000      -0.96380000       1.04820000       0.11770512       0.04483989       0.07755148
C       -4.26820000      -0.81400000       0.25730000      -0.13569158      -0.09674680      -0.11455287
C       -4.70720000       0.47500000      -0.05930000       0.02649334       0.08408540       0.07092538
Cl      -6.12590000       0.68080000      -1.05090000      -0.08521142       0.10101047      -0.08468831
C       -4.03280000       1.60690000       0.40460000       0.09494562      -0.03951736       0.05630220
C       -2.89780000       1.43700000       1.19700000      -0.26390159      -0.19625333      -0.17677030
Cl      -2.04350000       2.83000000       1.78620000       0.45878929      -0.26449507       0.03597423
C        1.66810000      -1.22510000       7.03090000       0.13322327      -0.16105866       0.26459262
C        2.26940000      -2.13840000       6.02500000      -0.00887881      -0.13542643      -0.02567748
N        2.13780000      -1.15340000       8.32060000      -0.17553779      -0.00495920       0.02366843
C        3.33240000      -1.77130000       8.77760000      -0.52787060       0.25184843      -0.12381640
C        4.56330000      -1.40680000       8.21940000      -0.05139023       0.20292947      -0.18199828
C        5.73310000      -2.01530000       8.66650000       0.15679434      -0.15210609       0.14084169
C        5.69060000      -2.97920000       9.67990000       0.05545241       0.01774232      -0.03694017
Cl       7.16730000      -3.70920000      10.22510000      -0.11824977      -0.30356321       0.33214951
C        4.45390000      -3.34170000      10.24070000      -0.16164535       0.10704420      -0.09208159
Cl       4.35550000      -4.53920000      11.49410000       0.37630439      -0.15745980       0.12306923
C        3.27880000      -2.74280000       9.78030000       0.17708209      -0.10796431       0.09526935
H        0.89400000       0.71770000      10.90270000       0.23345169      -0.13015860       0.03097496
H        2.62440000       0.38180000      10.64420000      -0.04534145       0.10578535       0.14948745
H        1.54420000      -0.90940000      11.19890000      -0.00992088       0.15322700       0.06754920
H       -0.55150000       0.70810000       8.60810000      -0.13035098       0.09973648      -0.01564834
H       -1.44560000      -0.06450000       6.18710000      -0.04119309       0.02001769      -0.09460507
Au       2.30350000       0.10360000      -0.25990000      -0.10119321      -0.00938087       0.41585752
H       -2.76640000      -1.95720000       1.31170000       0.01400411       0.07883945       0.07026906
H       -4.81400000      -1.68200000      -0.11250000       0.08233053      -0.11301141       0.11237321
H       -4.38470000       2.60710000       0.15560000      -0.11295240       0.09718385      -0.00397663
H        3.04320000      -1.62630000       5.43240000      -0.09286056      -0.01641970      -0.11377318
H        1.49870000      -2.45860000       5.31010000       0.06352880      -0.31383723       0.22903594
H        2.70360000      -3.02840000       6.50440000      -0.05074931      -0.02822802      -0.30820882
H        4.59620000      -0.64400000       7.44030000       0.22563098       0.04993895       0.15891446
H        6.69960000      -1.74210000       8.24130000      -0.08307143       0.26603338      -0.30293894
H        2.32140000      -3.04840000      10.20110000      -0.14292438       0.09325561      -0.22529665
37
Properties=species:S:1:pos:R:3:MACE_forces:R:3 Energy=2.122016571456058 MACE_energy=1.6990597248077393 pbc="F F F"
F       -4.71450000       2.34050000      -0.05670000      -0.03619767       0.05402401      -0.04838542
C       -4.15420000       1.18300000       0.31250000       0.03361665      -0.01479156      -0.00881467
C       -4.71530000      -0.01490000      -0.12610000      -0.20108460       0.20205247      -0.15961838
C       -4.12610000      -1.21920000       0.26540000       0.01654616      -0.15544705      -0.04147654
C       -2.99310000      -1.22220000       1.08070000       0.12229452      -0.02169048       0.10264094
C       -2.44870000      -0.00510000       1.49750000       0.06814435      -0.07245702      -0.17498136
C       -3.02510000       1.21080000       1.12450000       0.00096138       0.08550800       0.20369108
N       -1.27390000       0.00140000       2.33150000      -0.02669339      -0.00505614      -0.00836816
C       -0.00000000       0.00000000       1.76800000      -0.21042128       0.01265578      -0.60145015
S        0.00000000       0.00000000       0.00000000      -0.04992803      -0.02303726       0.32395703
N        1.09950000       0.00000000       2.44220000       0.26303762       0.00773111      -0.13307770
C        1.09590000       0.00140000       3.83520000       0.35064065      -0.00108962       0.00418884
O        2.13940000      -0.00240000       4.45760000       0.22999614      -0.00074228       0.10713311
C       -0.24110000       0.00890000       4.52920000      -0.08909781      -0.00333343      -0.34733000
C       -0.19510000       0.01500000       5.90150000       0.12218771      -0.00037930       0.10688472
C       -1.17940000       0.02360000       6.93880000       0.13374276      -0.00248006      -0.39304957
N       -0.82270000       0.02840000       8.22820000      -0.63192618       0.00334186       0.08518521
C       -1.99020000       0.03680000       8.92890000       0.28966624      -0.00073189       0.10249355
C       -2.21520000       0.04460000      10.32290000       0.00822073       0.00084704       0.19003899
C       -3.52660000       0.05260000      10.76810000      -0.06346493       0.00056739       0.05236455
C       -4.61930000       0.05310000       9.85990000      -0.07230674       0.00101556       0.13690780
C       -4.43260000       0.04550000       8.48410000      -0.29325378       0.00193887       0.13489577
C       -3.10460000       0.03730000       8.02720000       0.04413948      -0.00338841      -0.60543895
N       -2.55130000       0.02870000       6.78180000       0.52955800      -0.00028368       0.19014573
C       -1.46710000       0.00800000       3.72430000      -0.24737519       0.02268526       0.31461495
O       -2.62010000       0.01210000       4.14340000      -0.10520640       0.01168289       0.09917498
H       -5.60040000       0.01270000      -0.76360000       0.22704089      -0.10888670       0.20826788
H       -4.55660000      -2.16480000      -0.07000000      -0.05641933      -0.02184940       0.00482817
H       -2.52280000      -2.15600000       1.39070000      -0.10670199       0.16694751      -0.01017185
H       -2.60400000       2.16150000       1.45130000      -0.02832156      -0.13456494       0.03406005
Au       2.30830000       0.01200000      -0.26060000      -0.12179834       0.00208335       0.43279380
H        0.82140000       0.01320000       6.30570000      -0.08876080      -0.00087458      -0.21657351
H       -1.36890000       0.04440000      11.01180000      -0.13315170       0.00049459      -0.02355766
H       -3.73430000       0.05890000      11.84040000      -0.00359271      -0.00109814      -0.22140285
H       -5.63620000       0.05970000      10.25930000       0.29086906      -0.00176861      -0.09116247
H       -5.27680000       0.04610000       7.79230000      -0.07021611       0.00113848       0.13630021
H       -2.97590000       0.02540000       5.84710000      -0.09474389      -0.00076364       0.11429182
20
Properties=species:S:1:pos:R:3:MACE_forces:R:3 Energy=0.2504669647107284 MACE_energy=0.81095951795578 pbc="F F F"
F        4.24940000      -0.80350000       5.25610000      -0.08267435       0.07585331      -0.14933859
C        3.45010000      -0.62010000       4.20480000      -0.13264303       0.08218870       0.11924028
O        2.35020000       0.06730000       4.64950000       0.15856662      -0.22723657      -0.11217058
C        1.21840000       0.06610000       3.87680000       0.09488447       0.02075386       0.07376292
C        1.21930000       0.00000000       2.48670000       0.05053260      -0.09667458      -0.11556230
C       -0.00000000       0.00000000       1.78250000      -0.02828119      -0.06134153       0.19796737
S        0.00000000       0.00000000       0.00000000      -0.07043178       0.05604029       0.03557673
C       -1.20100000       0.09960000       2.48610000      -0.09919262       0.02960015      -0.27431259
C       -1.21800000       0.19100000       3.88830000      -0.05328550      -0.00091433       0.27132002
C        0.00080000       0.16550000       4.57840000      -0.14210516       0.00493189       0.30372024
F        0.06600000       0.22950000       5.89970000       0.07898422      -0.02457224      -0.22083586
C       -2.56400000       0.29570000       4.53440000      -0.50217664       0.04641672       0.46627158
O       -3.59780000       0.28490000       3.90890000       0.10355234      -0.01921457      -0.20062976
O       -2.52630000       0.40530000       5.87060000       0.80572712      -0.04399790      -0.16261628
F        4.13110000       0.11050000       3.28760000      -0.05379361      -0.02906413       0.16446963
H        3.18160000      -1.59040000       3.74730000      -0.02906888       0.06716633       0.18089288
H        2.15930000      -0.03280000       1.93730000      -0.07716925       0.13952887      -0.19585338
Au       0.08030000      -2.24510000      -0.50910000       0.01146639      -0.06405819      -0.02650430
H       -2.15630000       0.10980000       1.96170000       0.09742259       0.05730896      -0.06668082
H       -3.45120000       0.46790000       6.16510000      -0.13031428      -0.01271506      -0.28871727
30
Properties=species:S:1:pos:R:3:MACE_forces:R:3 Energy=1.0883750026175885 MACE_energy=0.6374040842056274 pbc="F F F"
C        7.17580000      -1.46400000       6.86860000       0.13771977       0.02499317       0.03804509
C        5.68340000      -1.38340000       6.69690000       0.04863842      -0.25932592       0.17493749
C        4.85230000      -2.36930000       7.05380000       0.07732434      -0.01266804      -0.01873854
C        5.20050000      -0.09200000       6.06800000      -0.20152053       0.28544992       0.01192664
N        3.76660000       0.07290000       6.03560000      -0.17985746      -0.19911852       0.01465730
C        3.04800000       0.02230000       4.88090000       0.30136943      -0.09035658      -0.57465529
O        3.58270000      -0.07710000       3.77730000      -0.63552290       0.09044957       0.35046044
C        1.55960000       0.09920000       4.99810000      -0.10905594      -0.00997005      -0.30550134
C        0.82940000       0.18920000       6.19140000       0.11803003       0.00828665       0.42791411
C       -0.57290000       0.25290000       6.17610000      -0.02334261      -0.00079328       0.01655264
F       -1.20360000       0.33680000       7.36030000       0.00221829       0.00175974      -0.07056978
C       -1.32770000       0.23300000       5.01050000      -0.06725898       0.00066748       0.05204441
C       -0.62080000       0.14090000       3.80180000      -0.42906171       0.00074549      -0.21259433
N       -1.08100000       0.07880000       2.50630000       0.71110368       0.29397526       0.35913423
C        0.00000000      -0.00000000       1.75430000      -0.11162166      -0.17077240      -0.02606279
S        0.00000000       0.00000000       0.00000000      -0.29243720      -0.04507573      -0.76187748
N        1.16420000      -0.00000000       2.49650000      -0.38881603      -0.13864037       0.65057677
C        0.80330000       0.07840000       3.81450000       0.49145225      -0.04887679      -0.29134399
H        7.48500000      -2.42500000       7.30280000      -0.04669835       0.05241741      -0.03292611
H        7.68940000      -1.34180000       5.89880000      -0.02468124      -0.03095160       0.01982538
H        7.54430000      -0.65390000       7.52230000      -0.00714199      -0.08006186      -0.04189385
H        3.77320000      -2.29150000       6.90280000       0.12801023      -0.11521885      -0.00001379
H        5.22990000      -3.29460000       7.49610000      -0.12035193       0.07945592      -0.06432335
H        5.54730000      -0.03790000       5.02390000       0.07094462       0.01289009      -0.10053600
H        5.66450000       0.76130000       6.59720000      -0.04799724      -0.01030338      -0.05342058
H        3.27740000       0.12010000       6.91900000      -0.00471313       0.27650934       0.34691164
H        1.31010000       0.21250000       7.17070000       0.21691577      -0.01466324      -0.20563160
H       -2.41600000       0.28350000       5.04180000       0.03036712       0.00937256       0.07732441
Au       0.92230000      -2.06520000      -0.46350000       0.23511112       0.07034922       0.01693004
H        2.13050000      -0.04430000       2.18600000       0.12087369       0.01947471       0.20284826
41
Properties=species:S:1:pos:R:3:MACE_forces:R:3 Energy=0.5316791766390302 MACE_energy=1.0331339836120605 pbc="F F F"
C        4.24640000       1.93080000       5.84240000      -0.10126126       0.60504425      -0.20047475
N        4.35370000       0.68370000       6.58990000       0.62533009       0.47194237      -0.12533344
C        5.66090000       0.47770000       7.25500000      -0.20674220      -0.19659670       0.00632693
C        5.70500000       1.11600000       8.63840000       0.01957952      -0.04129634      -0.16752702
C        5.13870000       0.51750000       9.77560000      -0.03572770      -0.06888971       0.09030331
C        5.20400000       1.13650000      11.02520000      -0.00756515       0.09293297       0.12741926
C        5.84130000       2.37310000      11.16690000      -0.08448014      -0.10793398       0.08423859
C        6.41020000       2.99270000      10.05350000       0.09071022       0.12149228      -0.10143543
C        6.32820000       2.35550000       8.81890000       0.08972462       0.04674335      -0.01058618
F        6.87770000       2.97590000       7.74920000      -0.01122958       0.06152847       0.01732378
C        6.13720000      -0.97620000       7.22880000      -0.01257606      -0.02153867      -0.07221986
C        3.27820000      -0.10460000       6.90260000      -0.19999006      -0.30976331       0.15610209
O        3.28130000      -0.91550000       7.82120000       0.03431968       0.10997391       0.18959621
C        2.04870000       0.00200000       6.03480000      -0.00381524       0.00581918      -0.01358657
C        0.78930000      -0.03460000       6.67070000      -0.05495705       0.01854350       0.15159112
C       -0.37020000      -0.02210000       5.91210000      -0.10372049      -0.03093523       0.25802109
C       -0.29550000      -0.00430000       4.50950000       0.11992053       0.02393989      -0.29213798
C        0.96210000       0.00040000       3.85640000       0.18187630       0.05297032      -0.27033234
C        2.13000000       0.00940000       4.64540000       0.11934812       0.15188196      -0.02264330
N        1.08420000      -0.00000000       2.47820000      -0.12026043       0.00448649      -0.17816962
C        0.00000000      -0.00000000       1.77070000       0.01186533       0.00757673      -0.00241145
N       -1.26040000       0.00160000       2.32240000       0.20293784      -0.01016678       0.48022240
C       -1.52330000      -0.00000000       3.70260000      -0.37515175       0.00551975      -0.41407666
O       -2.66550000       0.00160000       4.11620000      -0.17888507      -0.00634748      -0.10714379
S        0.00000000       0.00000000       0.00000000      -0.59268218      -0.01320274       0.34526256
H        3.19870000       2.18600000       5.65410000       0.03458700      -0.33303139       0.10403277
H        4.69900000       2.74870000       6.42430000      -0.01397799      -0.22264302       0.03070815
H        4.77370000       1.87330000       4.87440000      -0.05702491      -0.05918135       0.06773848
H        6.36400000       1.04510000       6.63150000      -0.07172992      -0.02246317      -0.02371461
H        4.62040000      -0.43320000       9.65570000      -0.05133182       0.02556505       0.06061087
H        4.75250000       0.65100000      11.89300000       0.06523196       0.06141682      -0.11542034
H        5.89540000       2.85930000      12.14370000      -0.02412464      -0.05217781      -0.05073403
H        6.91490000       3.95800000      10.12050000      -0.07382847      -0.08858733       0.13204269
H        6.11280000      -1.35670000       6.19580000       0.01828375      -0.04259546      -0.09075643
H        5.51460000      -1.62990000       7.84850000       0.02445715      -0.00828787      -0.01282068
H        7.17570000      -1.02030000       7.58960000      -0.19011903       0.06956577      -0.02602249
H        0.75190000      -0.08020000       7.75990000       0.13315588      -0.05171379      -0.32489038
H       -1.35870000      -0.03440000       6.37480000       0.24963212       0.04115659       0.04450051
H        3.09270000       0.00830000       4.13320000       0.17743766      -0.29823723       0.15029958
H       -2.08200000       0.00070000       1.72360000       0.17446981       0.00352474      -0.28093484
Au       2.28950000      -0.03250000      -0.32670000       0.19831359       0.00396493       0.40703177
21
Properties=species:S:1:pos:R:3:MACE_forces:R:3 Energy=3.3805530797753094 MACE_energy=3.114194869995117 pbc="F F F"
F        3.25830000      -0.00160000       9.69690000       0.03266937      -0.00000658       0.02127597
C        2.17470000      -0.00140000       8.90640000       0.00320885       0.00002861      -0.05059927
C        0.90840000      -0.00170000       9.48710000       0.07126790      -0.00005565       0.19755179
C       -0.20680000      -0.00150000       8.64450000      -0.05170073       0.00003004      -0.06735574
C       -0.06770000      -0.00100000       7.25700000      -0.03350456      -0.00011780       0.28724062
C        1.21860000      -0.00070000       6.67440000      -0.10595106      -0.00003273       0.07388318
C        1.51340000      -0.00030000       5.24400000       0.01380464       0.00003988      -0.15380502
C        0.76410000      -0.00020000       4.10890000      -0.18548431       0.00001247      -0.06153685
S        1.59010000      -0.00000000       2.52990000       0.92837179       0.00003752       0.51390344
C        0.00000000       0.00000000       1.73850000       0.16469093       0.00005871      -0.14025810
S        0.00000000       0.00000000       0.00000000      -0.23318425      -0.00000088      -0.69664705
N       -1.04020000      -0.00010000       2.50360000      -0.23752668      -0.00001865      -0.05520248
C       -0.73010000      -0.00010000       3.86970000       0.17289051      -0.00012217      -0.35251421
O       -1.58170000      -0.00010000       4.73400000      -0.37156415       0.00000112       0.58253795
C        2.34540000      -0.00090000       7.53000000       0.23394898      -0.00002522       0.16444513
H        0.81510000      -0.00210000      10.57450000      -0.04396793       0.00005180      -0.17677301
H       -1.20800000      -0.00180000       9.08120000      -0.04479227      -0.00001606      -0.03107820
H       -0.94090000      -0.00090000       6.60940000       0.21520793       0.00016248      -0.26696765
H        2.59340000      -0.00020000       5.05730000      -0.11444074       0.00001175      -0.01090292
Au      -2.30150000      -0.00010000      -0.29940000      -0.16536789      -0.00002247       0.26642656
H        3.35990000      -0.00070000       7.12720000      -0.24857631      -0.00001615      -0.04362405
43
Properties=species:S:1:pos:R:3:MACE_forces:R:3 Energy=0.36918266192797033 MACE_energy=0.1493852436542511 pbc="F F F"
S        0.00000000       0.00000000       0.00000000       0.06916557       0.05672938       0.44471127
C        0.00000000       0.00000000       1.78180000       0.41527659       0.07215909      -0.45385122
N       -1.09480000      -0.00830000       2.46320000      -0.18361607      -0.05738316      -0.41705495
C       -1.08690000       0.01450000       3.87100000      -0.13661748       0.02701137       0.39280546
O       -2.12840000       0.03480000       4.50880000      -0.78247547      -0.02224175      -0.33950198
C        0.22830000       0.04330000       4.50610000       0.11783686      -0.00892235      -0.48230097
C        0.32060000       0.20420000       5.99790000      -0.21927211      -0.00814423       0.37945363
N        1.67370000       0.57610000       6.38800000      -0.48568135      -0.11284253      -0.14351937
C        2.63800000      -0.28460000       5.73680000       0.05056128      -0.04120299      -0.06218781
N        2.62430000      -0.10480000       4.29080000      -0.66589010      -0.00350691       0.64202005
C        1.35920000       0.00410000       3.74530000       0.25262654       0.05701067       0.67246747
N        1.26530000       0.00000000       2.35000000      -0.19477993      -0.11977796      -0.21257612
C        2.45390000      -0.02840000       1.54650000      -0.21866667       0.10244016      -0.27056342
C        3.08570000      -1.24600000       1.27830000      -0.26942831      -0.07099614       0.17634778
C        4.24450000      -1.25640000       0.50170000       0.14903900      -0.02742784      -0.13618325
C        4.77410000      -0.06580000      -0.00280000       0.09365171       0.07376969      -0.09702188
C        4.13280000       1.14330000       0.28070000      -0.00743087       0.00002824       0.02478971
Cl       4.78590000       2.63590000      -0.34200000       0.06531616       0.21248205      -0.02537777
C        2.97300000       1.17470000       1.05810000      -0.07405932      -0.17624868       0.04107282
C        1.85430000       0.79050000       7.81500000      -0.25261649      -0.06245274      -0.34165567
C        2.00430000      -0.44370000       8.73580000       0.07552059      -0.15469246       0.10651745
C        2.49260000       0.18410000      10.04290000       0.11317928       0.01555754       0.21667571
C        3.53160000       1.23060000       9.58280000       0.11795035      -0.07153229      -0.03794838
C        3.07550000       1.67770000       8.17000000       0.18863291       0.15993401      -0.08362971
Au      -2.31360000      -0.00580000      -0.21150000       0.21688321      -0.02496046       0.45025909
H       -0.03380000      -0.72630000       6.49810000       0.39428058      -0.04916334      -0.12313696
H       -0.38410000       0.99400000       6.30420000       0.41866454       0.12336527       0.09393530
H        3.65080000      -0.06900000       6.10120000      -0.27215123       0.04734427      -0.18748209
H        2.43610000      -1.36040000       5.93160000       0.01496972       0.16996774      -0.04190180
H        3.30820000       0.55300000       3.92510000       1.02404439       0.16345170      -0.28430986
H        2.66070000      -2.16750000       1.67690000       0.15883684       0.12152193      -0.11158822
H        4.74360000      -2.20240000       0.28200000       0.02760271       0.03577221       0.04626072
H        5.67780000      -0.06670000      -0.61350000      -0.08457766      -0.25902560       0.14624055
H        2.46740000       2.11710000       1.26830000      -0.17760921      -0.07349993       0.01597451
H        0.94910000       1.32420000       8.14930000       0.01133086      -0.04018215      -0.33399284
H        2.77570000      -1.12670000       8.33860000      -0.12034583      -0.10838448       0.10361709
H        1.07320000      -1.02070000       8.84140000       0.07124865      -0.07308813       0.03141394
H        1.64730000       0.68530000      10.54490000      -0.00961358      -0.03803824      -0.02452880
H        2.90430000      -0.54590000      10.75620000      -0.01007400      -0.01013870       0.00999420
H        3.61450000       2.07100000      10.28800000       0.04971948       0.04897543       0.10587746
H        4.52870000       0.76440000       9.53040000      -0.04839673       0.03472901       0.05709055
H        2.80400000       2.74230000       8.12330000       0.04749655      -0.01083067      -0.02116711
H        3.87990000       1.53440000       7.43240000       0.06946804       0.10243393       0.07395554
22
Properties=species:S:1:pos:R:3:MACE_forces:R:3 Energy=0.3550844905847789 MACE_energy=0.26942169666290283 pbc="F F F"
C       -0.45210000       0.80650000       6.72440000       0.14452225      -0.44082296      -0.41316068
O        0.03630000      -0.29550000       5.95050000      -0.20176649       0.48259455      -0.01647006
C        0.01110000      -0.16430000       4.60400000      -0.38860688      -0.09419404       0.18468340
C       -1.19810000      -0.17340000       3.88390000       0.20451063      -0.02327066       0.19890295
O       -2.39160000      -0.23520000       4.57150000       0.03155555      -0.27064931       0.41720933
C       -2.71480000      -1.45570000       5.12800000       0.20528069       0.17988352       0.13507962
F       -3.62120000      -1.21560000       6.08140000       0.06770782      -0.03242012      -0.24679625
F       -3.28260000      -2.24710000       4.19270000      -0.00172095       0.17915298       0.08570849
C       -1.20750000      -0.09730000       2.49580000      -0.17631564      -0.04447562      -0.24222116
C       -0.00000000      -0.00000000       1.78270000       0.06186616       0.08373689       0.14347592