25
Properties=species:S:1:pos:R:3:MACE_forces:R:3 Energy=-0.4775343029160025 MACE_energy=-0.14449071884155273 pbc="F F F"
C        5.21020000       2.24450000      -1.57850000       0.17986752      -0.18784946      -0.17004798
C        4.20290000       2.56220000      -0.49560000      -0.18781009       0.05730543       0.22997050
O        3.76590000       1.31740000       0.07960000       0.24430369      -0.02341981      -0.41273084
C        2.86590000       1.39910000       1.06820000      -0.18236880      -0.19711876       0.21863902
O        2.40460000       2.43040000       1.48470000       0.00957323       0.15601154       0.02026461
C        2.54040000       0.01270000       1.61200000      -0.11773029       0.17455243      -0.32845092
C        1.26510000       0.00000000       2.40490000       0.02927694       0.04400743      -0.41448796
C       -0.00000000       0.00000000       1.77200000      -0.10806030      -0.14483444       0.26602021
S        0.00000000       0.00000000       0.00000000       0.07534392      -0.30777252       0.36161238
C       -1.14320000       0.01320000       2.58250000      -0.07792491       0.10184497      -0.26783139
C       -0.99840000       0.03310000       3.96980000       0.19298024       0.08643165      -0.18431552
N        0.17900000       0.04290000       4.58720000      -0.20024812      -0.00411887       0.12498000
C        1.27040000       0.02960000       3.81300000      -0.51752239      -0.08287881       0.09068500
C        2.54070000       0.04770000       4.50670000       0.83912861      -0.09596547       0.22994640
N        3.57320000       0.05740000       5.03510000      -0.34479058       0.07446814       0.09633725
H        4.75950000       1.61620000      -2.36200000       0.06098386       0.01439441       0.06824300
H        5.56810000       3.17580000      -2.04390000      -0.01151644       0.05738131       0.00778786
H        6.07760000       1.70920000      -1.16330000      -0.08732520       0.00726281      -0.05934316
H        3.32320000       3.09650000      -0.88870000       0.05870768       0.03650311       0.07210283
H        4.63230000       3.19000000       0.30150000      -0.06246245       0.01854166      -0.01857552
H        3.39390000      -0.28920000       2.23880000      -0.37085783       0.03822487      -0.27302244
H        2.50200000      -0.69680000       0.77120000       0.24903330       0.05538360       0.12788370
Au      -2.20660000      -0.08920000      -0.63800000       0.24330886       0.20413131       0.30150583
H       -2.13880000       0.01230000       2.13610000       0.03298594      -0.05176231      -0.13928956
H       -1.88810000       0.04440000       4.60890000       0.05312364      -0.03072432       0.05211650
48
Properties=species:S:1:pos:R:3:MACE_forces:R:3 Energy=3.5567862618807484 MACE_energy=3.100040912628174 pbc="F F F"
C        1.60800000      -0.03160000      10.53490000       0.19857727      -0.12317868       0.18876861
C        1.29440000      -0.35530000       9.11280000      -0.49790835       0.27215177      -0.04380936
C        0.26590000       0.05500000       8.30890000       0.33583742      -0.10096301       0.35203189
C        0.49460000      -0.45090000       6.97590000       0.34458527      -0.17690445       0.03693916
C       -0.40420000      -0.23680000       5.88970000       0.02925179       0.24231559       0.04261717
C       -0.21460000      -0.18770000       4.52590000      -0.13845995       0.09208918      -0.17153701
C        1.09620000      -0.01330000       3.84650000       0.49984193       0.04719982       0.89350492
O        2.14450000       0.14970000       4.45050000      -0.19751671       0.15728995      -0.81250197
N        1.09750000       0.00000000       2.44920000      -0.01302156      -0.09225428      -0.83490646
C       -0.00000000      -0.00000000       1.77190000       0.18405177      -0.07547445       0.63908273
S        0.00000000       0.00000000       0.00000000      -0.06783777       0.06622953      -0.35495973
N       -1.26860000      -0.00810000       2.32900000      -0.51318771       0.29318482      -0.49609774
C       -1.45750000      -0.08470000       3.73330000      -0.21926543       0.01231210       1.03652966
O       -2.58800000      -0.07770000       4.17830000       0.05529653      -0.17676619      -0.50703788
C       -2.43280000       0.15090000       1.51520000       0.19235805      -0.01977968       0.08666287
C       -3.13190000      -0.96380000       1.04820000       0.29902890       0.13425016       0.14297882
C       -4.26820000      -0.81400000       0.25730000      -0.35176581       0.11798923      -0.19295229
C       -4.70720000       0.47500000      -0.05930000       0.01963950      -0.00984332      -0.01432770
Cl      -6.12590000       0.68080000      -1.05090000      -0.04833889       0.14358617      -0.03182764
C       -4.03280000       1.60690000       0.40460000       0.21032965      -0.22869682       0.19196060
C       -2.89780000       1.43700000       1.19700000      -0.14879626      -0.08613569      -0.09574775
Cl      -2.04350000       2.83000000       1.78620000       0.08347194      -0.23936546       0.00373877
C        1.66810000      -1.22510000       7.03090000      -0.21580343       0.15080792      -0.15152492
C        2.26940000      -2.13840000       6.02500000       0.07964976      -0.04573559      -0.15352473
N        2.13780000      -1.15340000       8.32060000       0.46129903      -0.58523780       0.07523571
C        3.33240000      -1.77130000       8.77760000      -0.31300899       0.09750640       0.00395522
C        4.56330000      -1.40680000       8.21940000      -0.05028436       0.08695465      -0.34207451
C        5.73310000      -2.01530000       8.66650000       0.06209210      -0.34969455       0.28920308
C        5.69060000      -2.97920000       9.67990000       0.15401308      -0.06539309       0.03835849
Cl       7.16730000      -3.70920000      10.22510000      -0.36136833      -0.25192016       0.31983858
C        4.45390000      -3.34170000      10.24070000      -0.10278481       0.16528434      -0.10068998
Cl       4.35550000      -4.53920000      11.49410000       0.45601445       0.13573956      -0.19092588
C        3.27880000      -2.74280000       9.78030000       0.45258394      -0.09390343       0.30436125
H        0.89400000       0.71770000      10.90270000       0.00307377       0.06988972       0.07227829
H        2.62440000       0.38180000      10.64420000      -0.00262039       0.18095779       0.01299264
H        1.54420000      -0.90940000      11.19890000      -0.15622553       0.01618421       0.06514741
H       -0.55150000       0.70810000       8.60810000      -0.15217912       0.17195813       0.03826022
H       -1.44560000      -0.06450000       6.18710000      -0.16746061      -0.13845654      -0.18025303
Au       2.30350000       0.10360000      -0.25990000      -0.06948375      -0.06112396       0.37408763
H       -2.76640000      -1.95720000       1.31170000       0.06112415       0.09998924      -0.07965556
H       -4.81400000      -1.68200000      -0.11250000       0.24053925      -0.13129048       0.15383327
H       -4.38470000       2.60710000       0.15560000      -0.15866011       0.14644244      -0.13253349
H        3.04320000      -1.62630000       5.43240000       0.05240399       0.11380839      -0.05052836
H        1.49870000      -2.45860000       5.31010000       0.08876763      -0.30840790       0.08560091
H        2.70360000      -3.02840000       6.50440000      -0.18932198      -0.21780185      -0.02486846
H        4.59620000      -0.64400000       7.44030000       0.03936631       0.07166395       0.22477210
H        6.69960000      -1.74210000       8.24130000      -0.03710494       0.32100776      -0.33603334
H        2.32140000      -3.04840000      10.20110000      -0.43079278       0.17153449      -0.37442246
37
Properties=species:S:1:pos:R:3:MACE_forces:R:3 Energy=2.122016571456058 MACE_energy=2.1807126998901367 pbc="F F F"
F       -4.71450000       2.34050000      -0.05670000      -0.08173607       0.16701508      -0.12816013
C       -4.15420000       1.18300000       0.31250000       0.11569937      -0.08913419       0.07186253
C       -4.71530000      -0.01490000      -0.12610000      -0.79813892       0.19082224      -0.51279575
C       -4.12610000      -1.21920000       0.26540000       0.08916229      -0.19640879       0.09742701
C       -2.99310000      -1.22220000       1.08070000       0.37612435      -0.07366146       0.24184722
C       -2.44870000      -0.00510000       1.49750000      -0.24337891      -0.19865367       0.04537205
C       -3.02510000       1.21080000       1.12450000       0.29005280       0.31942564       0.40452409
N       -1.27390000       0.00140000       2.33150000      -0.15047881      -0.06006020      -0.38687629
C       -0.00000000       0.00000000       1.76800000       0.08302549       0.01838503       0.62574965
S        0.00000000       0.00000000       0.00000000      -0.04182240       0.02305372      -0.29484972
N        1.09950000       0.00000000       2.44220000      -0.15029570       0.01126579      -0.91323733
C        1.09590000       0.00140000       3.83520000       0.53456682       0.00283348       0.72851789
O        2.13940000      -0.00240000       4.45760000      -0.16808638       0.00044162      -0.35257214
C       -0.24110000       0.00890000       4.52920000      -0.09543160       0.00249471      -0.21665205
C       -0.19510000       0.01500000       5.90150000       0.42933443      -0.00382095      -0.17693865
C       -1.17940000       0.02360000       6.93880000      -0.58454883       0.00094783       0.09678055
N       -0.82270000       0.02840000       8.22820000       0.06639284      -0.00078999       0.03437505
C       -1.99020000       0.03680000       8.92890000      -0.09643017      -0.00009799      -0.14038754
C       -2.21520000       0.04460000      10.32290000       0.01937595       0.00091647       0.22856796
C       -3.52660000       0.05260000      10.76810000      -0.04297028       0.00050398       0.05342405
C       -4.61930000       0.05310000       9.85990000      -0.31281617       0.00166615       0.07480111
C       -4.43260000       0.04550000       8.48410000      -0.17092887       0.00250924       0.38333142
C       -3.10460000       0.03730000       8.02720000       0.11265555      -0.00160179      -0.20000914
N       -2.55130000       0.02870000       6.78180000       1.31838679      -0.00003965       0.56745714
C       -1.46710000       0.00800000       3.72430000      -0.77729011       0.02230827       0.73361051
O       -2.62010000       0.01210000       4.14340000       0.71730101       0.02694956      -0.70702934
H       -5.60040000       0.01270000      -0.76360000       0.32501265      -0.10605836       0.18089169
H       -4.55660000      -2.16480000      -0.07000000       0.03767195      -0.02021287      -0.00039190
H       -2.52280000      -2.15600000       1.39070000      -0.00149759       0.22052811      -0.06640068
H       -2.60400000       2.16150000       1.45130000       0.14035338      -0.24729811       0.00633739
Au       2.30830000       0.01200000      -0.26060000      -0.08787671      -0.01267800       0.43743685
H        0.82140000       0.01320000       6.30570000      -0.04923780       0.00142036      -0.16312811
H       -1.36890000       0.04440000      11.01180000      -0.06144075       0.00070553       0.07487410
H       -3.73430000       0.05890000      11.84040000       0.04819636      -0.00126048      -0.19770929
H       -5.63620000       0.05970000      10.25930000       0.32388309      -0.00221780      -0.16400854
H       -5.27680000       0.04610000       7.79230000      -0.14841703       0.00070145      -0.00516151
H       -2.97590000       0.02540000       5.84710000      -0.96437216      -0.00089989      -0.46088028
20
Properties=species:S:1:pos:R:3:MACE_forces:R:3 Energy=0.2504669647107284 MACE_energy=0.9236807823181152 pbc="F F F"
F        4.24940000      -0.80350000       5.25610000      -0.06304471      -0.06576431       0.05708849
C        3.45010000      -0.62010000       4.20480000      -0.18275216       0.37932265       0.18423924
O        2.35020000       0.06730000       4.64950000       0.28667897      -0.13877171      -0.35659733
C        1.21840000       0.06610000       3.87680000       0.09311524      -0.00428854       0.07615179
C        1.21930000       0.00000000       2.48670000       0.17384352      -0.06689274      -0.17294329
C       -0.00000000       0.00000000       1.78250000      -0.07741307       0.02483698      -0.53419751
S        0.00000000       0.00000000       0.00000000      -0.03517418      -0.41943690       0.39791158
C       -1.20100000       0.09960000       2.48610000      -0.27190536       0.08913755      -0.15716323
C       -1.21800000       0.19100000       3.88830000       0.00000772      -0.02214521      -0.03441052
C        0.00080000       0.16550000       4.57840000       0.15007038       0.04069265       0.52366477
F        0.06600000       0.22950000       5.89970000      -0.12727261      -0.04213183      -0.17692363
C       -2.56400000       0.29570000       4.53440000      -0.04442596       0.02576886       0.43219173
O       -3.59780000       0.28490000       3.90890000       0.07001677      -0.02776805      -0.23699695
O       -2.52630000       0.40530000       5.87060000       0.14964095      -0.02232084      -0.06659926
F        4.13110000       0.11050000       3.28760000      -0.05793498       0.00055322      -0.01562698
H        3.18160000      -1.59040000       3.74730000       0.04993503      -0.18212214      -0.00447607
H        2.15930000      -0.03280000       1.93730000      -0.13830613       0.01964867       0.05495518
Au       0.08030000      -2.24510000      -0.50910000       0.02393571       0.37743220       0.09504514
H       -2.15630000       0.10980000       1.96170000       0.13720976       0.03139909      -0.06326764
H       -3.45120000       0.46790000       6.16510000      -0.13622487       0.00285043      -0.00204554
30
Properties=species:S:1:pos:R:3:MACE_forces:R:3 Energy=1.0883750026175885 MACE_energy=1.9774219989776611 pbc="F F F"
C        7.17580000      -1.46400000       6.86860000      -0.07964523       0.07771788      -0.06487717
C        5.68340000      -1.38340000       6.69690000      -0.51639932      -0.56947696       0.16193131
C        4.85230000      -2.36930000       7.05380000       0.55977356       0.44450238      -0.21029583
C        5.20050000      -0.09200000       6.06800000       0.18245731       0.04801384      -0.28986859
N        3.76660000       0.07290000       6.03560000       0.52402353       0.31532472      -0.57827199
C        3.04800000       0.02230000       4.88090000       0.68301022      -0.06713358       0.10927344
O        3.58270000      -0.07710000       3.77730000      -0.35205632      -0.02434184      -0.33023706
C        1.55960000       0.09920000       4.99810000      -1.00504112       0.08098026      -0.04160114
C        0.82940000       0.18920000       6.19140000       0.29187098      -0.00980497       0.49735016
C       -0.57290000       0.25290000       6.17610000       0.22197473      -0.02587875      -0.68280107
F       -1.20360000       0.33680000       7.36030000      -0.22137466       0.01935071       0.25764996
C       -1.32770000       0.23300000       5.01050000      -0.47200868       0.04785904       0.59070170
C       -0.62080000       0.14090000       3.80180000       0.74414974      -0.05067213      -0.06364781
N       -1.08100000       0.07880000       2.50630000      -0.34054101       0.83594966       0.21070814
C        0.00000000      -0.00000000       1.75430000      -0.22844334      -0.08725998      -1.54816747
S        0.00000000       0.00000000       0.00000000      -0.66949695      -0.42566556       0.15421894
N        1.16420000      -0.00000000       2.49650000      -0.80547243      -0.51098311       2.15310335
C        0.80330000       0.07840000       3.81450000      -0.19871062       0.12675279      -0.07069010
H        7.48500000      -2.42500000       7.30280000       0.14287879       0.06719568       0.04526644
H        7.68940000      -1.34180000       5.89880000       0.09766856      -0.01190318       0.07938970
H        7.54430000      -0.65390000       7.52230000       0.01347997       0.01206611      -0.03884412
H        3.77320000      -2.29150000       6.90280000      -0.03245683      -0.41358447       0.13076566
H        5.22990000      -3.29460000       7.49610000      -0.36239427      -0.00250880      -0.00499131
H        5.54730000      -0.03790000       5.02390000      -0.15658596       0.03426815       0.02459069
H        5.66450000       0.76130000       6.59720000      -0.37170750      -0.00812459       0.01215973
H        3.27740000       0.12010000       6.91900000      -0.05631047       0.05183259       1.01510251
H        1.31010000       0.21250000       7.17070000       0.09308533      -0.01190952      -0.12640734
H       -2.41600000       0.28350000       5.04180000       0.10456674      -0.01270443       0.03574320
Au       0.92230000      -2.06520000      -0.46350000       0.77563345       0.30741811      -0.11389065
H        2.13050000      -0.04430000       2.18600000       1.43407178      -0.23728004      -1.31336319
41
Properties=species:S:1:pos:R:3:MACE_forces:R:3 Energy=0.5316791766390302 MACE_energy=0.8767880201339722 pbc="F F F"
C        4.24640000       1.93080000       5.84240000       0.01291482       0.23285283       0.06027336
N        4.35370000       0.68370000       6.58990000       0.67760587      -0.07010923       0.39486477
C        5.66090000       0.47770000       7.25500000      -0.32065010       0.53126764      -0.48213476
C        5.70500000       1.11600000       8.63840000       0.06022762       0.01875815      -0.27837771
C        5.13870000       0.51750000       9.77560000       0.00659727      -0.16133735       0.22654977
C        5.20400000       1.13650000      11.02520000       0.13676326       0.31614888       0.00683114
C        5.84130000       2.37310000      11.16690000      -0.25336179      -0.26727566       0.30829930
C        6.41020000       2.99270000      10.05350000       0.21866119       0.31309289      -0.24537230
C        6.32820000       2.35550000       8.81890000       0.00989398       0.02128750       0.29170460
F        6.87770000       2.97590000       7.74920000       0.18211274       0.18162450      -0.20587985
C        6.13720000      -0.97620000       7.22880000       0.05045614      -0.11908201      -0.32688317
C        3.27820000      -0.10460000       6.90260000      -0.45011055      -0.04698238      -0.26521504
O        3.28130000      -0.91550000       7.82120000       0.14440088      -0.22804822       0.20439476
C        2.04870000       0.00200000       6.03480000      -0.35865220       0.02157213      -0.04525326
C        0.78930000      -0.03460000       6.67070000       0.09220135      -0.05566712       0.32690620
C       -0.37020000      -0.02210000       5.91210000       0.13289517      -0.10069720       0.03979980
C       -0.29550000      -0.00430000       4.50950000      -0.15336049      -0.05509881      -0.17766818
C        0.96210000       0.00040000       3.85640000       0.19409195       0.07292280       0.29214630
C        2.13000000       0.00940000       4.64540000      -0.13868177       0.18773448      -0.05975342
N        1.08420000      -0.00000000       2.47820000      -0.41584107      -0.00512710      -0.76273900
C        0.00000000      -0.00000000       1.77070000      -0.11580857       0.04630765       0.72127223
N       -1.26040000       0.00160000       2.32240000      -0.41146287       0.02603006       0.17201123
C       -1.52330000      -0.00000000       3.70260000       0.29597718      -0.00679523       0.55939043
O       -2.66550000       0.00160000       4.11620000      -0.09390480       0.02083147      -0.32036006
S        0.00000000       0.00000000       0.00000000      -0.31441501      -0.01232684      -0.42608812
H        3.19870000       2.18600000       5.65410000      -0.23042226      -0.02647582       0.09710032
H        4.69900000       2.74870000       6.42430000      -0.15789440       0.18111096       0.05083424
H        4.77370000       1.87330000       4.87440000       0.01791080      -0.09113540      -0.23971999
H        6.36400000       1.04510000       6.63150000       0.04657223      -0.25866011       0.29951620
H        4.62040000      -0.43320000       9.65570000      -0.30286884      -0.04842712       0.06761988
H        4.75250000       0.65100000      11.89300000       0.02783178      -0.00911891      -0.07504275
H        5.89540000       2.85930000      12.14370000       0.01633333       0.00216241      -0.06947450
H        6.91490000       3.95800000      10.12050000      -0.10390285      -0.16922128       0.14456391
H        6.11280000      -1.35670000       6.19580000       0.19400811      -0.21076566       0.06195834
H        5.51460000      -1.62990000       7.84850000      -0.07449422      -0.03017488       0.10227036
H        7.17570000      -1.02030000       7.58960000       0.08652446      -0.04178178      -0.02835347
H        0.75190000      -0.08020000       7.75990000       0.22894739       0.07969117      -0.28944197
H       -1.35870000      -0.03440000       6.37480000       0.07713778       0.09329544       0.17196754
H        3.09270000       0.00830000       4.13320000       0.38010299      -0.31752610       0.17290285
H       -2.08200000       0.00070000       1.72360000       0.24091077      -0.00739935      -0.58429009
Au       2.28950000      -0.03250000      -0.32670000       0.36475280      -0.00745732       0.10887004
21
Properties=species:S:1:pos:R:3:MACE_forces:R:3 Energy=3.3805530797753094 MACE_energy=3.3063368797302246 pbc="F F F"
F        3.25830000      -0.00160000       9.69690000       0.03820239      -0.00001863       0.09374651
C        2.17470000      -0.00140000       8.90640000      -0.01414515       0.00008943      -0.26660419
C        0.90840000      -0.00170000       9.48710000      -0.12219680      -0.00021858       0.61519253
C       -0.20680000      -0.00150000       8.64450000       0.28265452       0.00010053      -0.12979186
C       -0.06770000      -0.00100000       7.25700000       0.13591434       0.00004404      -0.13731684
C        1.21860000      -0.00070000       6.67440000      -0.38210845      -0.00014310       0.43700922
C        1.51340000      -0.00030000       5.24400000       0.31504512       0.00007954      -0.49703097
C        0.76410000      -0.00020000       4.10890000      -0.00078021      -0.00006609       0.17279078
S        1.59010000      -0.00000000       2.52990000       0.13193950       0.00002769       0.32955587
C        0.00000000       0.00000000       1.73850000      -0.73667645      -0.00004908       0.73866129
S        0.00000000       0.00000000       0.00000000      -0.39718035       0.00003664      -0.85658181
N       -1.04020000      -0.00010000       2.50360000       0.61206758       0.00005283      -1.05465436
C       -0.73010000      -0.00010000       3.86970000       0.40431201      -0.00000433       0.11001259
O       -1.58170000      -0.00010000       4.73400000      -0.43496865       0.00009504      -0.56169742
C        2.34540000      -0.00090000       7.53000000       0.27861354      -0.00001891       0.10569049
H        0.81510000      -0.00210000      10.57450000      -0.03009600       0.00009099      -0.27251771
H       -1.20800000      -0.00180000       9.08120000      -0.11477792      -0.00001161      -0.05629339
H       -0.94090000      -0.00090000       6.60940000      -0.02961915      -0.00005924       0.13104838
H        2.59340000      -0.00020000       5.05730000       0.18612777       0.00001822       0.48738936
Au      -2.30150000      -0.00010000      -0.29940000       0.05909866      -0.00003671       0.71967500
H        3.35990000      -0.00070000       7.12720000      -0.18142620      -0.00000867      -0.10828349
43
Properties=species:S:1:pos:R:3:MACE_forces:R:3 Energy=0.36918266192797033 MACE_energy=-0.4121096730232239 pbc="F F F"
S        0.00000000       0.00000000       0.00000000      -0.00266747       0.08748720      -0.05942425
C        0.00000000       0.00000000       1.78180000       0.03484102       0.00249763       1.10949540
N       -1.09480000      -0.00830000       2.46320000       0.14794776       0.03883667      -1.19544196
C       -1.08690000       0.01450000       3.87100000       0.14908890       0.02570394       0.60136896
O       -2.12840000       0.03480000       4.50880000      -0.43733555      -0.12273286      -0.52459240
C        0.22830000       0.04330000       4.50610000       0.49783513       0.10656880      -0.39918327
C        0.32060000       0.20420000       5.99790000      -0.36853755      -0.31789163      -0.00106955
N        1.67370000       0.57610000       6.38800000       0.02075081       0.31273717       0.39692235
C        2.63800000      -0.28460000       5.73680000       0.01456662       0.18611440       0.13493150
N        2.62430000      -0.10480000       4.29080000      -0.82520992       0.12490288      -0.13003296
C        1.35920000       0.00410000       3.74530000       0.04594976      -0.10993075       0.95589638
N        1.26530000       0.00000000       2.35000000      -0.34278035      -0.11549888      -0.94113564
C        2.45390000      -0.02840000       1.54650000       0.35558534       0.01469462      -0.23647985
C        3.08570000      -1.24600000       1.27830000      -0.44011697      -0.14622086       0.23149975
C        4.24450000      -1.25640000       0.50170000      -0.07232027       0.20619474      -0.06262390
C        4.77410000      -0.06580000      -0.00280000       0.33754581       0.22947036      -0.32093841
C        4.13280000       1.14330000       0.28070000      -0.18975212      -0.23052663       0.10851017
Cl       4.78590000       2.63590000      -0.34200000      -0.06496467       0.05617359       0.03229925
C        2.97300000       1.17470000       1.05810000      -0.04410401      -0.08743201      -0.01467831
C        1.85430000       0.79050000       7.81500000      -0.10646396      -0.02377694      -0.15570346
C        2.00430000      -0.44370000       8.73580000      -0.24546818      -0.04152132      -0.22564673
C        2.49260000       0.18410000      10.04290000       0.10526861      -0.13496728       0.35507807
C        3.53160000       1.23060000       9.58280000       0.30339184       0.08896689       0.28140050
C        3.07550000       1.67770000       8.17000000      -0.06339247       0.24934587      -0.29325327
Au      -2.31360000      -0.00580000      -0.21150000       0.47292265      -0.02447397       0.72387844
H       -0.03380000      -0.72630000       6.49810000       0.12209323       0.02467462      -0.01728915
H       -0.38410000       0.99400000       6.30420000       0.26632667       0.15363383       0.08973131
H        3.65080000      -0.06900000       6.10120000      -0.10498695      -0.16825218      -0.10184816
H        2.43610000      -1.36040000       5.93160000       0.04778862      -0.06336002      -0.14795980
H        3.30820000       0.55300000       3.92510000       0.67890728       0.04592983      -0.03285280
H        2.66070000      -2.16750000       1.67690000       0.04256006       0.16746940      -0.08222107
H        4.74360000      -2.20240000       0.28200000      -0.00866294       0.05143039       0.07458329
H        5.67780000      -0.06670000      -0.61350000      -0.04395125      -0.27074042       0.09508233
H        2.46740000       2.11710000       1.26830000      -0.33354819      -0.08726859       0.13593748
H        0.94910000       1.32420000       8.14930000       0.25030690      -0.26958019      -0.45798296
H        2.77570000      -1.12670000       8.33860000      -0.22469305       0.09124798       0.09666425
H        1.07320000      -1.02070000       8.84140000       0.12664625      -0.06283545      -0.06741478
H        1.64730000       0.68530000      10.54490000       0.12196924       0.00106576      -0.08686475
H        2.90430000      -0.54590000      10.75620000      -0.05800744       0.01124838      -0.06160731
H        3.61450000       2.07100000      10.28800000      -0.04970291       0.00085689      -0.06805512
H        4.52870000       0.76440000       9.53040000      -0.13400705       0.04777720       0.01827659
H        2.80400000       2.74230000       8.12330000       0.16633835      -0.10217439       0.05993272
H        3.87990000       1.53440000       7.43240000      -0.14795756       0.05415553       0.18281111
22
Properties=species:S:1:pos:R:3:MACE_forces:R:3 Energy=0.3550844905847789 MACE_energy=0.2796285152435303 pbc="F F F"
C       -0.45210000       0.80650000       6.72440000       0.06828024      -0.09383012      -0.22680315
O        0.03630000      -0.29550000       5.95050000      -0.04850459      -0.04804976       0.15654278
C        0.01110000      -0.16430000       4.60400000      -0.18652512       0.04861553       0.05839362
C       -1.19810000      -0.17340000       3.88390000       0.32813221       0.04270216      -0.17285201
O       -2.39160000      -0.23520000       4.57150000      -0.09920408      -0.44964397       0.41676044
C       -2.71480000      -1.45570000       5.12800000      -0.13183753       0.26424199      -0.22747901
F       -3.62120000      -1.21560000       6.08140000      -0.01619342       0.05702517      -0.02471995
F       -3.28260000      -2.24710000       4.19270000       0.05983355       0.08471498       0.00897380
C       -1.20750000      -0.09730000       2.49580000      -0.28953642      -0.11413361      -0.19917418
C       -0.00000000      -0.00000000       1.78270000       0.13953185      -0.02640208      -0.47343773