25
Properties=species:S:1:pos:R:3:MACE_forces:R:3 Energy=-0.4775343029160025 MACE_energy=0.5663362741470337 pbc="F F F"
C        5.21020000       2.24450000      -1.57850000      -0.16346581      -0.12857035       0.20005104
C        4.20290000       2.56220000      -0.49560000       0.08273776       0.33261773      -0.15219717
O        3.76590000       1.31740000       0.07960000       0.49297172      -0.03538602      -0.65639842
C        2.86590000       1.39910000       1.06820000      -0.41909724       0.63931042       0.41511041
O        2.40460000       2.43040000       1.48470000      -0.44390225      -0.57702279       0.30910203
C        2.54040000       0.01270000       1.61200000       0.03734602       0.10996935      -0.18047625
C        1.26510000       0.00000000       2.40490000       0.01409175       0.22196729      -0.27212864
C       -0.00000000       0.00000000       1.77200000      -0.08465095       0.03185119      -0.05274935
S        0.00000000       0.00000000       0.00000000       0.20058599      -0.08106714      -0.08640854
C       -1.14320000       0.01320000       2.58250000      -0.28605336      -0.00679001      -0.09104675
C       -0.99840000       0.03310000       3.96980000       0.11105365      -0.04997040       0.38116026
N        0.17900000       0.04290000       4.58720000      -0.56659657      -0.03022720      -0.32811743
C        1.27040000       0.02960000       3.81300000      -0.20929459       0.04858934       0.26585835
C        2.54070000       0.04770000       4.50670000       0.42929858      -0.02593859      -0.12219319
N        3.57320000       0.05740000       5.03510000       0.15959105       0.04631922       0.61019719
H        4.75950000       1.61620000      -2.36200000       0.18433458      -0.13946542      -0.19851291
H        5.56810000       3.17580000      -2.04390000       0.41385710       0.11546419      -0.46636060
H        6.07760000       1.70920000      -1.16330000       0.17911367      -0.12933445      -0.18694258
H        3.32320000       3.09650000      -0.88870000      -0.06894099      -0.08002932       0.44904882
H        4.63230000       3.19000000       0.30150000      -0.41609937      -0.08030489       0.10400172
H        3.39390000      -0.28920000       2.23880000       0.17224196      -0.33634585      -0.07085869
H        2.50200000      -0.69680000       0.77120000       0.13587846       0.04195595       0.09260331
Au      -2.20660000      -0.08920000      -0.63800000      -0.14053167       0.10770827       0.29035774
H       -2.13880000       0.01230000       2.13610000      -0.05092368       0.00404071      -0.34345075
H       -1.88810000       0.04440000       4.60890000       0.23645417       0.00065890       0.09035051
48
Properties=species:S:1:pos:R:3:MACE_forces:R:3 Energy=3.5567862618807484 MACE_energy=2.7780773639678955 pbc="F F F"
C        1.60800000      -0.03160000      10.53490000       0.07832903      -0.11612220      -0.32224482
C        1.29440000      -0.35530000       9.11280000       0.35656092      -0.47786540      -0.47172371
C        0.26590000       0.05500000       8.30890000       0.13670000      -0.03315860       0.11760789
C        0.49460000      -0.45090000       6.97590000       0.06938564      -0.02807751      -0.11868960
C       -0.40420000      -0.23680000       5.88970000       0.15241155       0.07590486       0.14303511
C       -0.21460000      -0.18770000       4.52590000      -0.06477897       0.00530671      -0.14872977
C        1.09620000      -0.01330000       3.84650000       0.02715883      -0.02879876      -0.26087427
O        2.14450000       0.14970000       4.45050000       0.42197031       0.57358110      -0.46439517
N        1.09750000       0.00000000       2.44920000       0.36548194      -0.12595361       0.15342540
C       -0.00000000      -0.00000000       1.77190000      -0.17105573      -0.09804165      -0.13538988
S        0.00000000       0.00000000       0.00000000       0.10387993       0.01727708       0.35025895
N       -1.26860000      -0.00810000       2.32900000       0.02001169       0.25461900       0.11789805
C       -1.45750000      -0.08470000       3.73330000       0.18522416      -0.16874146      -0.16997565
O       -2.58800000      -0.07770000       4.17830000      -0.13958889      -0.26322347      -0.30835706
C       -2.43280000       0.15090000       1.51520000      -0.24587214       0.10389039      -0.02606820
C       -3.13190000      -0.96380000       1.04820000       0.29254326       0.04161196       0.27943251
C       -4.26820000      -0.81400000       0.25730000      -0.28775665      -0.07639036      -0.20063508
C       -4.70720000       0.47500000      -0.05930000       0.25784010      -0.08250377       0.21495484
Cl      -6.12590000       0.68080000      -1.05090000      -0.20008999       0.24919039      -0.26110876
C       -4.03280000       1.60690000       0.40460000      -0.06822029       0.14427063      -0.02640150
C       -2.89780000       1.43700000       1.19700000      -0.07018643      -0.53461534       0.06493251
Cl      -2.04350000       2.83000000       1.78620000       0.20939505       0.10698505      -0.17856209
C        1.66810000      -1.22510000       7.03090000      -0.00171860      -0.13722539       0.58914024
C        2.26940000      -2.13840000       6.02500000      -0.02572088      -0.02083656       0.06483654
N        2.13780000      -1.15340000       8.32060000      -0.99477601       0.59221172       0.28395966
C        3.33240000      -1.77130000       8.77760000       0.13783991       0.12045860      -0.08806105
C        4.56330000      -1.40680000       8.21940000      -0.49065572       0.17371024      -0.12519449
C        5.73310000      -2.01530000       8.66650000       0.36429960      -0.03313977      -0.00547256
C        5.69060000      -2.97920000       9.67990000       0.02659909      -0.07335078       0.08534538
Cl       7.16730000      -3.70920000      10.22510000       0.07069342      -0.25460356       0.25515932
C        4.45390000      -3.34170000      10.24070000       0.12068118       0.01458207      -0.00802057
Cl       4.35550000      -4.53920000      11.49410000       0.12629634      -0.11899291       0.07851057
C        3.27880000      -2.74280000       9.78030000      -0.16265140      -0.04277816       0.04755993
H        0.89400000       0.71770000      10.90270000       0.22229269      -0.02287813       0.18509799
H        2.62440000       0.38180000      10.64420000      -0.08110958       0.11530177       0.25208929
H        1.54420000      -0.90940000      11.19890000       0.00294104       0.27241725       0.36579084
H       -0.55150000       0.70810000       8.60810000      -0.23173189       0.20347050       0.14293692
H       -1.44560000      -0.06450000       6.18710000      -0.33303925      -0.11057762      -0.15400048
Au       2.30350000       0.10360000      -0.25990000      -0.31043902       0.02024524       0.36224514
H       -2.76640000      -1.95720000       1.31170000       0.00423276       0.26934806       0.07785617
H       -4.81400000      -1.68200000      -0.11250000       0.11191080      -0.08712442       0.14699179
H       -4.38470000       2.60710000       0.15560000      -0.06003205       0.00335223       0.03515561
H        3.04320000      -1.62630000       5.43240000       0.06716245      -0.23083299      -0.29887426
H        1.49870000      -2.45860000       5.31010000       0.04144339      -0.41722703       0.09382029
H        2.70360000      -3.02840000       6.50440000      -0.12420239       0.02661776      -0.38796613
H        4.59620000      -0.64400000       7.44030000       0.22009502       0.09927984       0.20897014
H        6.69960000      -1.74210000       8.24130000      -0.11198112       0.15424091      -0.24041519
H        2.32140000      -3.04840000      10.20110000      -0.01777297      -0.05481379      -0.31585056
37
Properties=species:S:1:pos:R:3:MACE_forces:R:3 Energy=2.122016571456058 MACE_energy=2.1680774688720703 pbc="F F F"
F       -4.71450000       2.34050000      -0.05670000      -0.01139360      -0.13886447       0.04334621
C       -4.15420000       1.18300000       0.31250000      -0.03573055       0.01547640      -0.13977076
C       -4.71530000      -0.01490000      -0.12610000      -0.15016146       0.25222430      -0.14218481
C       -4.12610000      -1.21920000       0.26540000      -0.07496734      -0.13457619      -0.11486643
C       -2.99310000      -1.22220000       1.08070000       0.23824751      -0.10141943       0.20196167
C       -2.44870000      -0.00510000       1.49750000       0.24468875      -0.08424537       0.14978859
C       -3.02510000       1.21080000       1.12450000      -0.09518971       0.17925870       0.06074947
N       -1.27390000       0.00140000       2.33150000      -0.55060577      -0.08016491       0.03546670
C       -0.00000000       0.00000000       1.76800000      -0.38096747       0.02291954      -0.17427889
S        0.00000000       0.00000000       0.00000000       0.30410552      -0.00881464       0.25779581
N        1.09950000       0.00000000       2.44220000       0.42357168       0.00965667       0.02864061
C        1.09590000       0.00140000       3.83520000       0.24919122      -0.00851986      -0.18869036
O        2.13940000      -0.00240000       4.45760000       0.27685574       0.00110614      -0.10454781
C       -0.24110000       0.00890000       4.52920000      -0.15784752      -0.00805155      -0.19263186
C       -0.19510000       0.01500000       5.90150000      -0.00297116      -0.00072413       0.21405852
C       -1.17940000       0.02360000       6.93880000      -0.11605406      -0.00072731      -0.03515787
N       -0.82270000       0.02840000       8.22820000      -0.72815573      -0.00088339      -0.76660693
C       -1.99020000       0.03680000       8.92890000      -0.10332973       0.00057178      -0.04406302
C       -2.21520000       0.04460000      10.32290000      -0.00638262       0.00099016       0.21018757
C       -3.52660000       0.05260000      10.76810000      -0.08385816      -0.00014605      -0.10872313
C       -4.61930000       0.05310000       9.85990000       0.13309768       0.00001019       0.12382855
C       -4.43260000       0.04550000       8.48410000      -0.10721990       0.00053927      -0.01699010
C       -3.10460000       0.03730000       8.02720000       0.13277075      -0.00139184      -0.14880113
N       -2.55130000       0.02870000       6.78180000       0.75680470       0.00251057       0.91875672
C       -1.46710000       0.00800000       3.72430000       0.38785610       0.05249131      -0.34002435
O       -2.62010000       0.01210000       4.14340000      -0.03849795       0.00810975      -0.48778903
H       -5.60040000       0.01270000      -0.76360000       0.13467571      -0.05701505       0.15854406
H       -4.55660000      -2.16480000      -0.07000000      -0.04586597       0.05289636       0.02438634
H       -2.52280000      -2.15600000       1.39070000      -0.08269489       0.17703159       0.00188957
H       -2.60400000       2.16150000       1.45130000       0.03309097      -0.14875410       0.07321516
Au       2.30830000       0.01200000      -0.26060000      -0.35619685       0.00113430       0.40618166
H        0.82140000       0.01320000       6.30570000       0.05978028      -0.00087708      -0.16281101
H       -1.36890000       0.04440000      11.01180000      -0.04388048       0.00071818       0.10398586
H       -3.73430000       0.05890000      11.84040000      -0.09380476      -0.00004001      -0.08939289
H       -5.63620000       0.05970000      10.25930000       0.13406132      -0.00034076       0.05635948
H       -5.27680000       0.04610000       7.79230000      -0.12632467       0.00123853       0.11717233
H       -2.97590000       0.02540000       5.84710000      -0.11669756      -0.00332757       0.07101529
20
Properties=species:S:1:pos:R:3:MACE_forces:R:3 Energy=0.2504669647107284 MACE_energy=0.729824423789978 pbc="F F F"
F        4.24940000      -0.80350000       5.25610000      -0.04626953       0.05357170      -0.10179394
C        3.45010000      -0.62010000       4.20480000      -0.34682101       0.15962571      -0.05847947
O        2.35020000       0.06730000       4.64950000       0.24223422      -0.26600194      -0.13226271
C        1.21840000       0.06610000       3.87680000      -0.25537312      -0.00579920       0.35773075
C        1.21930000       0.00000000       2.48670000       0.02330326      -0.04326577      -0.24655256
C       -0.00000000       0.00000000       1.78250000      -0.15699679      -0.03444736       0.20616913
S        0.00000000       0.00000000       0.00000000       0.06656735      -0.08944443       0.02036746
C       -1.20100000       0.09960000       2.48610000      -0.01822042      -0.04480518      -0.44270796
C       -1.21800000       0.19100000       3.88830000      -0.20196000      -0.00171651       0.41452286
C        0.00080000       0.16550000       4.57840000       0.13507651       0.02505549       0.35333851
F        0.06600000       0.22950000       5.89970000      -0.01582679       0.02140495      -0.49603581
C       -2.56400000       0.29570000       4.53440000      -0.51113701       0.03603309       0.23689286
O       -3.59780000       0.28490000       3.90890000       0.14107916      -0.01195897      -0.18142173
O       -2.52630000       0.40530000       5.87060000       0.91702080      -0.03262565      -0.00961243
F        4.13110000       0.11050000       3.28760000      -0.03022629      -0.00897986       0.22928092
H        3.18160000      -1.59040000       3.74730000       0.19117855      -0.12290348       0.28535199
H        2.15930000      -0.03280000       1.93730000      -0.11336397       0.20023584      -0.23074317
Au       0.08030000      -2.24510000      -0.50910000       0.03812422       0.09895726       0.04030184
H       -2.15630000       0.10980000       1.96170000       0.05570826       0.06923790      -0.11504133
H       -3.45120000       0.46790000       6.16510000      -0.11409748      -0.00217364      -0.12930544
30
Properties=species:S:1:pos:R:3:MACE_forces:R:3 Energy=1.0883750026175885 MACE_energy=0.5779620409011841 pbc="F F F"
C        7.17580000      -1.46400000       6.86860000      -0.01076779       0.05424953       0.07409742
C        5.68340000      -1.38340000       6.69690000      -0.07530431      -0.14799322       0.33499995
C        4.85230000      -2.36930000       7.05380000       0.09447982      -0.06455544      -0.00381687
C        5.20050000      -0.09200000       6.06800000       0.16783082       0.23799890      -0.06596290
N        3.76660000       0.07290000       6.03560000       0.77022934       0.02639836       0.16702007
C        3.04800000       0.02230000       4.88090000       0.55598271       0.05831797       0.25695750
O        3.58270000      -0.07710000       3.77730000      -0.13622320       0.06653965       0.30681485
C        1.55960000       0.09920000       4.99810000       0.28247967      -0.00573621      -0.12448113
C        0.82940000       0.18920000       6.19140000      -0.19859765      -0.02209063      -0.19858983
C       -0.57290000       0.25290000       6.17610000      -0.01499269      -0.01906825      -0.21165870
F       -1.20360000       0.33680000       7.36030000       0.03585277       0.00270839       0.00117388
C       -1.32770000       0.23300000       5.01050000      -0.15540582       0.03723078       0.53840214
C       -0.62080000       0.14090000       3.80180000       0.27906400      -0.07380717      -0.32876027
N       -1.08100000       0.07880000       2.50630000       1.82084835       0.16546512      -0.05886603
C        0.00000000      -0.00000000       1.75430000      -0.07602581      -0.16610314       0.28749636
S        0.00000000       0.00000000       0.00000000      -0.25596741      -0.05991955       0.01795371
N        1.16420000      -0.00000000       2.49650000      -1.46651578      -0.07981519      -0.06092784
C        0.80330000       0.07840000       3.81450000      -0.01928464      -0.03500790      -0.48243761
H        7.48500000      -2.42500000       7.30280000      -0.09197854      -0.05858298      -0.04387951
H        7.68940000      -1.34180000       5.89880000       0.11196850       0.02753077      -0.18200502
H        7.54430000      -0.65390000       7.52230000       0.17558998       0.00312560       0.03121227
H        3.77320000      -2.29150000       6.90280000       0.02935772      -0.41889489      -0.05443823
H        5.22990000      -3.29460000       7.49610000      -0.05949284       0.21247604      -0.08892246
H        5.54730000      -0.03790000       5.02390000      -0.63314533      -0.21256210       0.03469965
H        5.66450000       0.76130000       6.59720000      -0.36676067      -0.03731068      -0.11054932
H        3.27740000       0.12010000       6.91900000      -0.68785822       0.20842510      -0.69696647
H        1.31010000       0.21250000       7.17070000       0.14385098       0.09812467       0.55604684
H       -2.41600000       0.28350000       5.04180000      -0.21572110       0.02884949      -0.02615435
Au       0.92230000      -2.06520000      -0.46350000       0.17939779       0.21129538       0.14790697
H        2.13050000      -0.04430000       2.18600000      -0.18289055      -0.03728843      -0.01636499
41
Properties=species:S:1:pos:R:3:MACE_forces:R:3 Energy=0.5316791766390302 MACE_energy=1.4312076568603516 pbc="F F F"
C        4.24640000       1.93080000       5.84240000      -0.24834783       0.42022687      -0.16626413
N        4.35370000       0.68370000       6.58990000      -0.39670232       0.54085553      -0.65828818
C        5.66090000       0.47770000       7.25500000       0.22584687      -0.50716513       0.36205614
C        5.70500000       1.11600000       8.63840000       0.13055426       0.07204065      -0.17281246
C        5.13870000       0.51750000       9.77560000       0.04392797      -0.14116986       0.13905643
C        5.20400000       1.13650000      11.02520000       0.06674063       0.06561700       0.06969029
C        5.84130000       2.37310000      11.16690000      -0.01908380      -0.00877333       0.29386652
C        6.41020000       2.99270000      10.05350000       0.10699320       0.02249274      -0.24524230
C        6.32820000       2.35550000       8.81890000       0.06102011       0.16344410      -0.11390729
F        6.87770000       2.97590000       7.74920000      -0.11491472      -0.19837096       0.26808524
C        6.13720000      -0.97620000       7.22880000      -0.01556618       0.20636867      -0.13401578
C        3.27820000      -0.10460000       6.90260000       0.60676038       0.17587961       0.14241570
O        3.28130000      -0.91550000       7.82120000      -0.62202108       0.29037619      -0.01585683
C        2.04870000       0.00200000       6.03480000      -0.16499411       0.11181182      -0.20520684
C        0.78930000      -0.03460000       6.67070000       0.04818469      -0.08553199       0.17438625
C       -0.37020000      -0.02210000       5.91210000      -0.11097789      -0.01332911       0.01409468
C       -0.29550000      -0.00430000       4.50950000      -0.09059424       0.00126233      -0.15400131
C        0.96210000       0.00040000       3.85640000       0.08117165       0.05671572      -0.06929739
C        2.13000000       0.00940000       4.64540000       0.26528364       0.25018740       0.23075287
N        1.08420000      -0.00000000       2.47820000      -0.61272985      -0.04143313      -0.68074685
C        0.00000000      -0.00000000       1.77070000       0.07213149       0.00225400      -0.01255733
N       -1.26040000       0.00160000       2.32240000       0.80812627       0.00330207       0.00880489
C       -1.52330000      -0.00000000       3.70260000      -0.02769557      -0.00625957      -0.34499249
O       -2.66550000       0.00160000       4.11620000      -0.03233001       0.00176864       0.00171484
S        0.00000000       0.00000000       0.00000000       0.19168884       0.00219040       0.54837656
H        3.19870000       2.18600000       5.65410000       0.04990258      -0.22589630       0.15743440
H        4.69900000       2.74870000       6.42430000      -0.17297941      -0.43183053      -0.17102791
H        4.77370000       1.87330000       4.87440000      -0.05195118       0.07869551       0.26255211
H        6.36400000       1.04510000       6.63150000       0.31513080       0.32578906       0.08568089
H        4.62040000      -0.43320000       9.65570000      -0.01200577      -0.05856090       0.12092201
H        4.75250000       0.65100000      11.89300000       0.01446569       0.06784733       0.04432335
H        5.89540000       2.85930000      12.14370000      -0.07770336      -0.11463109      -0.14618498
H        6.91490000       3.95800000      10.12050000      -0.06003538      -0.01988205       0.00002771
H        6.11280000      -1.35670000       6.19580000      -0.01100449      -0.06713478       0.13190551
H        5.51460000      -1.62990000       7.84850000       0.06371151      -0.09030291       0.02258052
H        7.17570000      -1.02030000       7.58960000      -0.08819122      -0.16626994      -0.12158769
H        0.75190000      -0.08020000       7.75990000       0.20205380      -0.16014273      -0.18211272
H       -1.35870000      -0.03440000       6.37480000       0.10114218       0.00352768       0.16091056
H        3.09270000       0.00830000       4.13320000       0.26069331      -0.54575509      -0.01140135
H       -2.08200000       0.00070000       1.72360000      -0.41299015       0.00233298      -0.07430628
Au       2.28950000      -0.03250000      -0.32670000      -0.37271127       0.01745294       0.44017276
21
Properties=species:S:1:pos:R:3:MACE_forces:R:3 Energy=3.3805530797753094 MACE_energy=2.8163020610809326 pbc="F F F"
F        3.25830000      -0.00160000       9.69690000      -0.15333824       0.00005196      -0.19617322
C        2.17470000      -0.00140000       8.90640000       0.03184339      -0.00006585       0.21886703
C        0.90840000      -0.00170000       9.48710000       0.12815274      -0.00003821       0.13286540
C       -0.20680000      -0.00150000       8.64450000      -0.03634413      -0.00004341       0.12791497
C       -0.06770000      -0.00100000       7.25700000      -0.24605569      -0.00003090      -0.07304978
C        1.21860000      -0.00070000       6.67440000      -0.10281973       0.00002399      -0.10688403
C        1.51340000      -0.00030000       5.24400000      -0.05877581       0.00003003      -0.06307571
C        0.76410000      -0.00020000       4.10890000      -0.10094228      -0.00002959      -0.04561375
S        1.59010000      -0.00000000       2.52990000       0.04654047       0.00000869       0.67892516
C        0.00000000       0.00000000       1.73850000       0.05471895       0.00002332       0.22360738
S        0.00000000       0.00000000       0.00000000       0.03933632       0.00002117      -0.50698686
N       -1.04020000      -0.00010000       2.50360000       0.25496078      -0.00006312       0.20634785
C       -0.73010000      -0.00010000       3.86970000       0.50641596      -0.00007304      -0.10331220
O       -1.58170000      -0.00010000       4.73400000      -0.39623976       0.00007304      -0.12723877
C        2.34540000      -0.00090000       7.53000000       0.32757276      -0.00000120       0.10560507
H        0.81510000      -0.00210000      10.57450000      -0.05327422       0.00002444      -0.07849974
H       -1.20800000      -0.00180000       9.08120000      -0.02113515      -0.00004977       0.08962322
H       -0.94090000      -0.00090000       6.60940000       0.28665298       0.00014210      -0.24130616
H        2.59340000      -0.00020000       5.05730000       0.07682123      -0.00001467      -0.20982850
Au      -2.30150000      -0.00010000      -0.29940000      -0.35931677      -0.00002075       0.09360920
H        3.35990000      -0.00070000       7.12720000      -0.22477368       0.00003177      -0.12539658
43
Properties=species:S:1:pos:R:3:MACE_forces:R:3 Energy=0.36918266192797033 MACE_energy=0.5778099894523621 pbc="F F F"
S        0.00000000       0.00000000       0.00000000      -0.20873737       0.07837635       0.22826676
C        0.00000000       0.00000000       1.78180000       0.64131320       0.16066498      -0.26691437
N       -1.09480000      -0.00830000       2.46320000      -0.43362528       0.05719028       0.00825283
C       -1.08690000       0.01450000       3.87100000      -0.00289454      -0.08147027       0.00828999
O       -2.12840000       0.03480000       4.50880000      -0.36159033      -0.06341836      -0.32277879
C        0.22830000       0.04330000       4.50610000      -0.26890242      -0.04812247      -0.18705080
C        0.32060000       0.20420000       5.99790000      -0.28442353       0.13127348       0.49311912
N        1.67370000       0.57610000       6.38800000      -1.10490143      -0.07394060       0.13814794
C        2.63800000      -0.28460000       5.73680000       0.34030777      -0.42497808      -0.63271862
N        2.62430000      -0.10480000       4.29080000       0.22665963      -0.55171669       0.24544229
C        1.35920000       0.00410000       3.74530000       0.12846552       0.33009717       0.02511230
N        1.26530000       0.00000000       2.35000000       0.59593123      -0.36120716       0.45586544
C        2.45390000      -0.02840000       1.54650000      -0.32632381      -0.08357440       0.04902570
C        3.08570000      -1.24600000       1.27830000      -0.34702206       0.02388386       0.37247336
C        4.24450000      -1.25640000       0.50170000       0.14084798      -0.13050000      -0.13062429
C        4.77410000      -0.06580000      -0.00280000       0.24157415       0.09339041      -0.19193375
C        4.13280000       1.14330000       0.28070000       0.05082215      -0.28166121       0.02192961
Cl       4.78590000       2.63590000      -0.34200000      -0.00532076       0.36762911      -0.05703760
C        2.97300000       1.17470000       1.05810000      -0.19418755       0.14703813       0.06440074
C        1.85430000       0.79050000       7.81500000      -0.17969269      -0.13265558      -0.44964957
C        2.00430000      -0.44370000       8.73580000      -0.31460747      -0.49223530      -0.10590181
C        2.49260000       0.18410000      10.04290000       0.17029384      -0.20239943       0.58408278
C        3.53160000       1.23060000       9.58280000       0.38825965       0.16984315       0.34232780
C        3.07550000       1.67770000       8.17000000       0.31213212       0.55829108      -0.33234417
Au      -2.31360000      -0.00580000      -0.21150000       0.32186878      -0.03637461       0.34409261
H       -0.03380000      -0.72630000       6.49810000       0.24398255      -0.16491419      -0.31955287
H       -0.38410000       0.99400000       6.30420000       0.37235564       0.33048305       0.03544615
H        3.65080000      -0.06900000       6.10120000      -0.77941000       0.39115855      -0.49011600
H        2.43610000      -1.36040000       5.93160000      -0.02569997       0.36473665      -0.35812631
H        3.30820000       0.55300000       3.92510000       0.39185190       0.14808767      -0.15428495
H        2.66070000      -2.16750000       1.67690000       0.06852014       0.25532472      -0.12666252
H        4.74360000      -2.20240000       0.28200000      -0.01970764       0.11363654       0.06898349
H        5.67780000      -0.06670000      -0.61350000      -0.11913164      -0.22599804       0.16083609
H        2.46740000       2.11710000       1.26830000      -0.11566646      -0.30588466       0.00990061
H        0.94910000       1.32420000       8.14930000      -0.05083145      -0.04407424      -0.59528559
H        2.77570000      -1.12670000       8.33860000      -0.15866640      -0.44311500      -0.00637686
H        1.07320000      -1.02070000       8.84140000       0.05007022      -0.17290938       0.01265383
H        1.64730000       0.68530000      10.54490000      -0.07694948       0.18206060       0.40259767
H        2.90430000      -0.54590000      10.75620000       0.20547462       0.13631621       0.23104531
H        3.61450000       2.07100000      10.28800000      -0.05445571      -0.02192418       0.26320663
H        4.52870000       0.76440000       9.53040000       0.15612686      -0.00519523       0.17195284
H        2.80400000       2.74230000       8.12330000       0.05256470       0.16310176      -0.06721703
H        3.87990000       1.53440000       7.43240000       0.33332536       0.14568536       0.05712381
22
Properties=species:S:1:pos:R:3:MACE_forces:R:3 Energy=0.3550844905847789 MACE_energy=0.07737743854522705 pbc="F F F"
C       -0.45210000       0.80650000       6.72440000       0.30610454      -0.66519952      -0.31231278
O        0.03630000      -0.29550000       5.95050000      -0.32258183       1.06496799       0.99526298
C        0.01110000      -0.16430000       4.60400000      -0.64571536      -0.06011473       0.03108457
C       -1.19810000      -0.17340000       3.88390000       0.04755384      -0.10969725       0.33812287
O       -2.39160000      -0.23520000       4.57150000       0.13397098      -0.11314350       0.00431187
C       -2.71480000      -1.45570000       5.12800000       0.25442585       0.16615826      -0.08413562
F       -3.62120000      -1.21560000       6.08140000      -0.08235513      -0.08363960      -0.11036529
F       -3.28260000      -2.24710000       4.19270000      -0.05114166       0.08879495       0.10417815
C       -1.20750000      -0.09730000       2.49580000      -0.17114931       0.05246924      -0.25998381
C       -0.00000000      -0.00000000       1.78270000       0.11548503       0.08409736       0.10050044