25
Properties=species:S:1:pos:R:3:MACE_forces:R:3 Energy=-0.4775343029160025 MACE_energy=0.4213837683200836 pbc="F F F"
C        5.21020000       2.24450000      -1.57850000      -0.09855195      -0.10789762       0.05614412
C        4.20290000       2.56220000      -0.49560000       0.08735885      -0.20343085       0.09570915
O        3.76590000       1.31740000       0.07960000      -0.17356186      -0.31057626       0.17258190
C        2.86590000       1.39910000       1.06820000       0.15489414       0.16805109      -0.35201707
O        2.40460000       2.43040000       1.48470000      -0.57194537      -0.13377070       0.69083405
C        2.54040000       0.01270000       1.61200000       0.30149308      -0.30127928      -0.22498368
C        1.26510000       0.00000000       2.40490000       0.12244690       0.14025432      -0.45890987
C       -0.00000000       0.00000000       1.77200000      -0.09356295      -0.05897049       0.43730131
S        0.00000000       0.00000000       0.00000000       1.24674582      -0.11042448      -0.10386012
C       -1.14320000       0.01320000       2.58250000      -0.61345381       0.10799546      -0.05664721
C       -0.99840000       0.03310000       3.96980000       0.71142679       0.00947997      -0.19243628
N        0.17900000       0.04290000       4.58720000      -0.51670408       0.01447710       0.15523131
C        1.27040000       0.02960000       3.81300000       0.17001635      -0.05601013       0.69603896
C        2.54070000       0.04770000       4.50670000       0.24961570       0.11630300      -0.04046434
N        3.57320000       0.05740000       5.03510000      -0.13313733       0.02014279       0.20893821
H        4.75950000       1.61620000      -2.36200000       0.01098387       0.28019172       0.00860979
H        5.56810000       3.17580000      -2.04390000      -0.16727293       0.03707869       0.14381441
H        6.07760000       1.70920000      -1.16330000       0.00488748       0.20084317      -0.06270778
H        3.32320000       3.09650000      -0.88870000       0.57080710       0.08182578      -0.25058722
H        4.63230000       3.19000000       0.30150000       0.17906040      -0.03066032      -0.66151738
H        3.39390000      -0.28920000       2.23880000      -0.32977772       0.06129052      -0.11074458
H        2.50200000      -0.69680000       0.77120000      -0.82006860       0.23103775      -0.05516293
Au      -2.20660000      -0.08920000      -0.63800000      -0.24726877       0.03949650       0.19385692
H       -2.13880000       0.01230000       2.13610000      -0.19839562      -0.09629803      -0.42528358
H       -1.88810000       0.04440000       4.60890000       0.15396447      -0.09914964       0.13626195
48
Properties=species:S:1:pos:R:3:MACE_forces:R:3 Energy=3.5567862618807484 MACE_energy=3.448570489883423 pbc="F F F"
C        1.60800000      -0.03160000      10.53490000       0.20050237      -0.15594545      -0.12012619
C        1.29440000      -0.35530000       9.11280000      -0.66935390       0.52800941       0.20380045
C        0.26590000       0.05500000       8.30890000       0.44872218       0.08649763       0.39530128
C        0.49460000      -0.45090000       6.97590000      -0.10509623       0.21881886      -0.08720201
C       -0.40420000      -0.23680000       5.88970000      -0.09878342      -0.15918529       0.52187204
C       -0.21460000      -0.18770000       4.52590000      -0.31384826       0.27892753      -0.73855609
C        1.09620000      -0.01330000       3.84650000       0.34633678       0.06411742      -0.35061714
O        2.14450000       0.14970000       4.45050000       0.14444004       0.07942397      -0.61063528
N        1.09750000       0.00000000       2.44920000      -0.23679803       0.18104808       0.55870903
C       -0.00000000      -0.00000000       1.77190000       0.98704350       0.03898990      -1.05999303
S        0.00000000       0.00000000       0.00000000      -0.23790586       0.18365145      -0.73239744
N       -1.26860000      -0.00810000       2.32900000      -0.15415896      -0.17743796       0.46268845
C       -1.45750000      -0.08470000       3.73330000      -0.57789046       0.19007400       0.65386200
O       -2.58800000      -0.07770000       4.17830000      -0.13736549       0.06685342      -1.10623312
C       -2.43280000       0.15090000       1.51520000      -0.61207736       0.23189190      -0.03072996
C       -3.13190000      -0.96380000       1.04820000       0.19523205       0.18751572       0.09834816
C       -4.26820000      -0.81400000       0.25730000      -0.19420759       0.16697150      -0.15107597
C       -4.70720000       0.47500000      -0.05930000       0.16325265      -0.19116488       0.09250852
Cl      -6.12590000       0.68080000      -1.05090000       0.37913138       0.13714358       0.39403662
C       -4.03280000       1.60690000       0.40460000       0.34636748      -0.32435226       0.10030515
C       -2.89780000       1.43700000       1.19700000       0.11366589      -0.05143443       0.08028114
Cl      -2.04350000       2.83000000       1.78620000      -0.19755912      -0.79079151      -0.00517797
C        1.66810000      -1.22510000       7.03090000      -0.45290124       0.16236795      -0.19013575
C        2.26940000      -2.13840000       6.02500000      -0.17304792      -0.08432745       0.22780688
N        2.13780000      -1.15340000       8.32060000       0.63091850      -0.38123864       0.37801358
C        3.33240000      -1.77130000       8.77760000       0.66082847      -0.44660294       0.07444659
C        4.56330000      -1.40680000       8.21940000      -0.08596972       0.21151702      -0.23761643
C        5.73310000      -2.01530000       8.66650000       0.00609512      -0.31503776       0.31258455
C        5.69060000      -2.97920000       9.67990000      -0.34069347      -0.09354397       0.16650231
Cl       7.16730000      -3.70920000      10.22510000      -0.06103031       0.02330422      -0.00176960
C        4.45390000      -3.34170000      10.24070000       0.44224024       0.04182540      -0.11155165
Cl       4.35550000      -4.53920000      11.49410000      -0.03759138       0.06296808      -0.09367557
C        3.27880000      -2.74280000       9.78030000       0.33111084      -0.22878757       0.15907365
H        0.89400000       0.71770000      10.90270000       0.01085163      -0.03726598      -0.07589182
H        2.62440000       0.38180000      10.64420000      -0.04991612       0.11995511       0.04622424
H        1.54420000      -0.90940000      11.19890000      -0.11324920       0.19456920       0.03033390
H       -0.55150000       0.70810000       8.60810000      -0.31314993       0.02947114       0.09742770
H       -1.44560000      -0.06450000       6.18710000      -0.09588683      -0.06215079       0.19116241
Au       2.30350000       0.10360000      -0.25990000      -0.08615223      -0.00977922       0.61816418
H       -2.76640000      -1.95720000       1.31170000       0.10889800      -0.04334574       0.43081036
H       -4.81400000      -1.68200000      -0.11250000      -0.02396966       0.05141944      -0.10764331
H       -4.38470000       2.60710000       0.15560000      -0.24878925       0.30990285      -0.19023173
H        3.04320000      -1.62630000       5.43240000       0.25869873      -0.18920925      -0.07855464
H        1.49870000      -2.45860000       5.31010000       0.27571678      -0.27645046       0.16337802
H        2.70360000      -3.02840000       6.50440000      -0.08222721      -0.16473004      -0.00273541
H        4.59620000      -0.64400000       7.44030000       0.05678114       0.21641195       0.00630811
H        6.69960000      -1.74210000       8.24130000       0.04434171       0.26126522      -0.27655038
H        2.32140000      -3.04840000      10.20110000      -0.45155630      -0.14213055      -0.10484891
37
Properties=species:S:1:pos:R:3:MACE_forces:R:3 Energy=2.122016571456058 MACE_energy=2.274184226989746 pbc="F F F"
F       -4.71450000       2.34050000      -0.05670000       0.00365752       0.13428184      -0.08727792
C       -4.15420000       1.18300000       0.31250000      -0.12431280      -0.14133045      -0.01706014
C       -4.71530000      -0.01490000      -0.12610000      -0.36625504       0.15045568      -0.23162030
C       -4.12610000      -1.21920000       0.26540000      -0.00051034       0.04755700      -0.10267022
C       -2.99310000      -1.22220000       1.08070000       0.48116192       0.36686179       0.40419924
C       -2.44870000      -0.00510000       1.49750000      -0.40186241      -0.21056783       0.08664198
C       -3.02510000       1.21080000       1.12450000       0.31704628      -0.25532806       0.16669518
N       -1.27390000       0.00140000       2.33150000       0.20843615      -0.02932616       0.16914782
C       -0.00000000       0.00000000       1.76800000      -0.12281004       0.04348203      -1.07013977
S        0.00000000       0.00000000       0.00000000      -0.34046012       0.06919064      -0.89001846
N        1.09950000       0.00000000       2.44220000       0.06097403       0.00431330       0.65261161
C        1.09590000       0.00140000       3.83520000      -0.26329061      -0.03907647       0.02981418
O        2.13940000      -0.00240000       4.45760000      -0.36339107       0.03049897      -0.09892556
C       -0.24110000       0.00890000       4.52920000       0.73535413       0.02694297      -0.24928595
C       -0.19510000       0.01500000       5.90150000       0.64424020       0.00480993      -0.44246233
C       -1.17940000       0.02360000       6.93880000      -0.54171276       0.00849370       0.14245763
N       -0.82270000       0.02840000       8.22820000       0.24008203      -0.00460600      -0.09575698
C       -1.99020000       0.03680000       8.92890000      -0.28416270      -0.00167402      -0.57324016
C       -2.21520000       0.04460000      10.32290000       0.10544793       0.00128551       0.28698307
C       -3.52660000       0.05260000      10.76810000      -0.28079110       0.00094856      -0.03552365
C       -4.61930000       0.05310000       9.85990000      -0.28991023       0.00113021       0.06812835
C       -4.43260000       0.04550000       8.48410000      -0.20850255       0.00228283       0.35611480
C       -3.10460000       0.03730000       8.02720000       0.48801649       0.00173628       0.11885604
N       -2.55130000       0.02870000       6.78180000       1.47831881      -0.00096229       0.13678998
C       -1.46710000       0.00800000       3.72430000      -0.49703977       0.01976695       0.67117107
O       -2.62010000       0.01210000       4.14340000      -0.65132505      -0.00258110      -0.73197687
H       -5.60040000       0.01270000      -0.76360000       0.30299693      -0.15592766       0.25231495
H       -4.55660000      -2.16480000      -0.07000000      -0.07809897       0.02181407      -0.14485620
H       -2.52280000      -2.15600000       1.39070000       0.08016662       0.28794396       0.28623685
H       -2.60400000       2.16150000       1.45130000       0.26104128      -0.34591979       0.27162096
Au       2.30830000       0.01200000      -0.26060000       0.00488530      -0.01322173       0.87158120
H        0.82140000       0.01320000       6.30570000      -0.03799018       0.00103239       0.39319682
H       -1.36890000       0.04440000      11.01180000      -0.06617919       0.00093103       0.05902407
H       -3.73430000       0.05890000      11.84040000       0.06184104      -0.00077157      -0.07545323
H       -5.63620000       0.05970000      10.25930000       0.39693135      -0.00249326      -0.12801223
H       -5.27680000       0.04610000       7.79230000      -0.07183731       0.00128790      -0.12565824
H       -2.97590000       0.02540000       5.84710000      -0.88015592      -0.02326105      -0.32364789
20
Properties=species:S:1:pos:R:3:MACE_forces:R:3 Energy=0.2504669647107284 MACE_energy=0.7649347186088562 pbc="F F F"
F        4.24940000      -0.80350000       5.25610000       0.11869167      -0.00186887       0.19567771
C        3.45010000      -0.62010000       4.20480000      -0.05474211      -0.05275865       0.17346318
O        2.35020000       0.06730000       4.64950000       0.40574425      -0.08610608       0.06639882
C        1.21840000       0.06610000       3.87680000       0.46620002      -0.10531949      -0.06959467
C        1.21930000       0.00000000       2.48670000      -0.55782950       0.13799042      -0.15751635
C       -0.00000000       0.00000000       1.78250000       0.17262730      -0.07631764       0.41363573
S        0.00000000       0.00000000       0.00000000      -0.03917469      -0.16860802      -0.22402298
C       -1.20100000       0.09960000       2.48610000       0.19008133       0.14939277       0.08921666
C       -1.21800000       0.19100000       3.88830000       0.08110487      -0.03592411       0.43743411
C        0.00080000       0.16550000       4.57840000      -0.20623805       0.02824823       0.51726538
F        0.06600000       0.22950000       5.89970000      -0.60520250       0.01396319       0.01858982
C       -2.56400000       0.29570000       4.53440000      -0.45925239       0.03433508       0.52586257
O       -3.59780000       0.28490000       3.90890000      -0.25880590      -0.00611158      -0.53568721
O       -2.52630000       0.40530000       5.87060000       0.58074963      -0.03286554      -0.85015595
F        4.13110000       0.11050000       3.28760000       0.13405214       0.15703273      -0.16336021
H        3.18160000      -1.59040000       3.74730000       0.09831081      -0.13988598       0.07209282
H        2.15930000      -0.03280000       1.93730000      -0.24665174       0.03312668      -0.67766798
Au       0.08030000      -2.24510000      -0.50910000      -0.03209783       0.18004595       0.07156122
H       -2.15630000       0.10980000       1.96170000       0.19322468      -0.04993254      -0.55514407
H       -3.45120000       0.46790000       6.16510000       0.01920785       0.02156345       0.65195131
30
Properties=species:S:1:pos:R:3:MACE_forces:R:3 Energy=1.0883750026175885 MACE_energy=1.4635705947875977 pbc="F F F"
C        7.17580000      -1.46400000       6.86860000       0.01864892       0.12622111      -0.14315082
C        5.68340000      -1.38340000       6.69690000      -0.24404047      -0.11475662       0.03298656
C        4.85230000      -2.36930000       7.05380000       0.41151142      -0.00673711       0.06875405
C        5.20050000      -0.09200000       6.06800000       0.25843164      -0.17782387      -0.28456193
N        3.76660000       0.07290000       6.03560000      -0.81401789       0.51068854       0.12282738
C        3.04800000       0.02230000       4.88090000       0.68184686      -0.07753792      -0.01616526
O        3.58270000      -0.07710000       3.77730000      -0.66669929       0.20020416      -0.36936125
C        1.55960000       0.09920000       4.99810000       0.03844716      -0.10648265      -0.59646332
C        0.82940000       0.18920000       6.19140000       0.37557301       0.04282802       0.48369205
C       -0.57290000       0.25290000       6.17610000      -0.14049378      -0.03417953      -0.11418422
F       -1.20360000       0.33680000       7.36030000      -0.11289258       0.02163607       0.07567076
C       -1.32770000       0.23300000       5.01050000       0.11883388      -0.00954199      -0.22771811
C       -0.62080000       0.14090000       3.80180000       0.19439349      -0.00021604      -0.07592757
N       -1.08100000       0.07880000       2.50630000       0.47424269       0.54047781       0.10438976
C        0.00000000      -0.00000000       1.75430000      -0.40477556      -0.25772306       0.49065137
S        0.00000000       0.00000000       0.00000000      -0.11918000      -0.43870175      -1.14027226
N        1.16420000      -0.00000000       2.49650000      -0.87798220      -0.99686897       0.52380097
C        0.80330000       0.07840000       3.81450000       0.06828739       0.09305773       0.26217476
H        7.48500000      -2.42500000       7.30280000       0.15430120      -0.11858758       0.08444351
H        7.68940000      -1.34180000       5.89880000      -0.06574760       0.01159581       0.03766188
H        7.54430000      -0.65390000       7.52230000       0.03682885       0.06566627      -0.09590106
H        3.77320000      -2.29150000       6.90280000       0.17528820      -0.51837826       0.11186203
H        5.22990000      -3.29460000       7.49610000      -0.47302198       0.12079271      -0.04485656
H        5.54730000      -0.03790000       5.02390000       0.06659508      -0.11836295      -0.05123526
H        5.66450000       0.76130000       6.59720000      -0.09363782       0.18340167      -0.14830846
H        3.27740000       0.12010000       6.91900000      -0.40231270      -0.08174245       0.28248870
H        1.31010000       0.21250000       7.17070000       0.28281426       0.00405850      -0.10631157
H       -2.41600000       0.28350000       5.04180000      -0.13868330       0.04808414       0.00149309
Au       0.92230000      -2.06520000      -0.46350000       0.25419316       0.83263278       0.62999260
H        2.13050000      -0.04430000       2.18600000       0.94324821       0.25629544       0.10152826
41
Properties=species:S:1:pos:R:3:MACE_forces:R:3 Energy=0.5316791766390302 MACE_energy=0.8279538750648499 pbc="F F F"
C        4.24640000       1.93080000       5.84240000       0.44547099      -0.36248225      -0.06598740
N        4.35370000       0.68370000       6.58990000       0.19965404       0.45951003       0.45153603
C        5.66090000       0.47770000       7.25500000      -0.28774205      -0.14813866       0.10055188
C        5.70500000       1.11600000       8.63840000      -0.09953368      -0.09871133       0.34149796
C        5.13870000       0.51750000       9.77560000       0.02676550       0.30799031       0.24683550
C        5.20400000       1.13650000      11.02520000       0.02860575       0.07314772      -0.12116409
C        5.84130000       2.37310000      11.16690000      -0.17199777       0.00091243       0.22277904
C        6.41020000       2.99270000      10.05350000       0.04189726      -0.02173870      -0.11286808
C        6.32820000       2.35550000       8.81890000       0.10322332       0.12358741      -0.12428075
F        6.87770000       2.97590000       7.74920000      -0.13375700      -0.05214247      -0.24939111
C        6.13720000      -0.97620000       7.22880000       0.03995005      -0.35315764      -0.52064931
C        3.27820000      -0.10460000       6.90260000       0.09729446      -0.01541659      -0.28043371
O        3.28130000      -0.91550000       7.82120000      -0.55390042      -0.20234062      -0.43857011
C        2.04870000       0.00200000       6.03480000       0.12276123       0.12268376      -0.15125793
C        0.78930000      -0.03460000       6.67070000      -0.04544067      -0.06771277       0.46955281
C       -0.37020000      -0.02210000       5.91210000      -0.14143056       0.00348270       0.51589978
C       -0.29550000      -0.00430000       4.50950000       0.21441481       0.00550279      -0.18207453
C        0.96210000       0.00040000       3.85640000       0.14275610       0.00522999      -0.38510224
C        2.13000000       0.00940000       4.64540000      -0.09100774       0.13271745       0.06480514
N        1.08420000      -0.00000000       2.47820000      -0.87307286       0.02494731      -0.32999668
C        0.00000000      -0.00000000       1.77070000       0.30770680       0.03540428       0.69155264
N       -1.26040000       0.00160000       2.32240000       0.53860378      -0.04221876       0.41019255
C       -1.52330000      -0.00000000       3.70260000      -0.15576586       0.00921661       0.11884080
O       -2.66550000       0.00160000       4.11620000      -0.21826920      -0.02297569      -0.22994506
S        0.00000000       0.00000000       0.00000000      -0.42247537       0.00834955      -0.30319449
H        3.19870000       2.18600000       5.65410000      -0.26473281      -0.10522071      -0.08541476
H        4.69900000       2.74870000       6.42430000       0.14976197       0.23798203      -0.12761649
H        4.77370000       1.87330000       4.87440000      -0.13703898      -0.03047187       0.06977525
H        6.36400000       1.04510000       6.63150000      -0.47913229       0.24980813      -0.04284936
H        4.62040000      -0.43320000       9.65570000       0.21708618       0.00177953      -0.08250895
H        4.75250000       0.65100000      11.89300000       0.10947998      -0.02842430      -0.03075463
H        5.89540000       2.85930000      12.14370000       0.05656548      -0.11739886      -0.09156371
H        6.91490000       3.95800000      10.12050000      -0.03695278      -0.07792289      -0.01502241
H        6.11280000      -1.35670000       6.19580000       0.08712158      -0.11006565       0.25408494
H        5.51460000      -1.62990000       7.84850000       0.15155640      -0.08537767       0.02846790
H        7.17570000      -1.02030000       7.58960000       0.20762736       0.10053073       0.26304698
H        0.75190000      -0.08020000       7.75990000       0.12290673      -0.08692002      -0.08399493
H       -1.35870000      -0.03440000       6.37480000       0.02598528       0.06654516      -0.09277065
H        3.09270000       0.00830000       4.13320000       0.33622351       0.03247550       0.27407518
H       -2.08200000       0.00070000       1.72360000       0.36436903       0.04357539      -0.66568506
Au       2.28950000      -0.03250000      -0.32670000      -0.02553760      -0.01654165       0.28960234
21
Properties=species:S:1:pos:R:3:MACE_forces:R:3 Energy=3.3805530797753094 MACE_energy=3.5956709384918213 pbc="F F F"
F        3.25830000      -0.00160000       9.69690000       0.18114524      -0.00004164       0.17138818
C        2.17470000      -0.00140000       8.90640000       0.00490698       0.00006377      -0.22588521
C        0.90840000      -0.00170000       9.48710000      -0.17416346      -0.00013165       0.31491059
C       -0.20680000      -0.00150000       8.64450000       0.28406698       0.00001450       0.11619782
C       -0.06770000      -0.00100000       7.25700000      -0.05467663       0.00019157      -0.42032894
C        1.21860000      -0.00070000       6.67440000      -0.12832749      -0.00005779       0.30357197
C        1.51340000      -0.00030000       5.24400000      -0.37289554      -0.00000916      -0.45387673
C        0.76410000      -0.00020000       4.10890000       0.28162616      -0.00006072       0.39927471
S        1.59010000      -0.00000000       2.52990000       0.10084066       0.00006535       0.95303494
C        0.00000000       0.00000000       1.73850000      -0.84938079      -0.00001732      -0.13779190
S        0.00000000       0.00000000       0.00000000      -0.26120460       0.00006114      -1.22515643
N       -1.04020000      -0.00010000       2.50360000       0.42812902      -0.00000938      -0.77156442
C       -0.73010000      -0.00010000       3.86970000       0.26490510      -0.00004935      -0.15511301
O       -1.58170000      -0.00010000       4.73400000       0.43657485       0.00009405      -0.48384964
C        2.34540000      -0.00090000       7.53000000      -0.04565151      -0.00007587       0.18758646
H        0.81510000      -0.00210000      10.57450000      -0.06325375       0.00007411      -0.19593176
H       -1.20800000      -0.00180000       9.08120000      -0.11738160       0.00006032      -0.27220476
H       -0.94090000      -0.00090000       6.60940000      -0.06020727      -0.00024275       0.65339446
H        2.59340000      -0.00020000       5.05730000       0.08852021       0.00007322       0.24387652
Au      -2.30150000      -0.00010000      -0.29940000       0.03505021      -0.00001873       1.04510045
H        3.35990000      -0.00070000       7.12720000       0.02137731       0.00001634      -0.04663348
43
Properties=species:S:1:pos:R:3:MACE_forces:R:3 Energy=0.36918266192797033 MACE_energy=-0.5035166144371033 pbc="F F F"
S        0.00000000       0.00000000       0.00000000       0.40358257      -0.00781388      -0.33758688
C        0.00000000       0.00000000       1.78180000       0.22824568      -0.00228216       0.17107645
N       -1.09480000      -0.00830000       2.46320000       0.00031686      -0.11398979       0.31828639
C       -1.08690000       0.01450000       3.87100000       0.13318950       0.09258913       0.22865924
O       -2.12840000       0.03480000       4.50880000      -0.30529356      -0.14007056      -0.72678018
C        0.22830000       0.04330000       4.50610000       0.16703825       0.03762510      -0.41794744
C        0.32060000       0.20420000       5.99790000       0.21705021       0.25925171       0.03949225
N        1.67370000       0.57610000       6.38800000      -0.26025078       0.24728629       0.76785737
C        2.63800000      -0.28460000       5.73680000      -0.44281286       0.10479455       0.27234381
N        2.62430000      -0.10480000       4.29080000      -0.41628972       0.49628738       0.37768316
C        1.35920000       0.00410000       3.74530000       0.72200012      -0.29565325       0.15405345
N        1.26530000       0.00000000       2.35000000      -1.31126332       0.30334550      -0.72641909
C        2.45390000      -0.02840000       1.54650000       0.39397231       0.48149312      -0.38054851
C        3.08570000      -1.24600000       1.27830000      -0.09464809      -0.08209730       0.27756017
C        4.24450000      -1.25640000       0.50170000      -0.05025131       0.03329451       0.11253838
C        4.77410000      -0.06580000      -0.00280000       0.21363480       0.35142004       0.06252445
C        4.13280000       1.14330000       0.28070000       0.07516686      -0.07108130       0.04032848
Cl       4.78590000       2.63590000      -0.34200000      -0.23530212      -0.25561401       0.16995010
C        2.97300000       1.17470000       1.05810000       0.02772090      -0.36194310       0.10799851
C        1.85430000       0.79050000       7.81500000      -0.49280131       0.03635724      -0.18900058
C        2.00430000      -0.44370000       8.73580000       0.02049762      -0.06049748       0.57912314
C        2.49260000       0.18410000      10.04290000      -0.05861649      -0.04410899      -0.02564018
C        3.53160000       1.23060000       9.58280000       0.16003177      -0.00350453       0.14424989
C        3.07550000       1.67770000       8.17000000       0.37490493       0.16955459       0.01035426
Au      -2.31360000      -0.00580000      -0.21150000       0.20741524      -0.02173656       0.52192330
H       -0.03380000      -0.72630000       6.49810000       0.16602722       0.09314555      -0.07413897
H       -0.38410000       0.99400000       6.30420000       0.44272068      -0.22181299       0.14131847
H        3.65080000      -0.06900000       6.10120000       0.13686301       0.04961774      -0.01704393
H        2.43610000      -1.36040000       5.93160000      -0.15411295      -0.53279191       0.00350876
H        3.30820000       0.55300000       3.92510000      -0.00179029      -0.21367376      -0.89419872
H        2.66070000      -2.16750000       1.67690000      -0.05386062       0.03638784      -0.03555966
H        4.74360000      -2.20240000       0.28200000       0.03300758       0.01397788      -0.06788253
H        5.67780000      -0.06670000      -0.61350000      -0.17186286      -0.12061694      -0.00980489
H        2.46740000       2.11710000       1.26830000      -0.27146667      -0.00757889       0.08826104
H        0.94910000       1.32420000       8.14930000       0.20332415       0.24608703      -0.66730392
H        2.77570000      -1.12670000       8.33860000       0.03650424      -0.05962802       0.01301473
H        1.07320000      -1.02070000       8.84140000      -0.02158160      -0.40179592      -0.15028083
H        1.64730000       0.68530000      10.54490000       0.30450508       0.03153872       0.00861083
H        2.90430000      -0.54590000      10.75620000       0.01226325       0.19357333       0.02744431
H        3.61450000       2.07100000      10.28800000      -0.01116500      -0.05344456       0.16653794
H        4.52870000       0.76440000       9.53040000      -0.17363238      -0.14186084      -0.01738861
H        2.80400000       2.74230000       8.12330000      -0.01929067      -0.32469916      -0.24643540
H        3.87990000       1.53440000       7.43240000      -0.13369043       0.26066837       0.17926122
22
Properties=species:S:1:pos:R:3:MACE_forces:R:3 Energy=0.3550844905847789 MACE_energy=0.4233202040195465 pbc="F F F"
C       -0.45210000       0.80650000       6.72440000       0.10588428       0.15194301      -0.42683449
O        0.03630000      -0.29550000       5.95050000       0.06138623       0.00819972       0.43000343
C        0.01110000      -0.16430000       4.60400000      -0.16691966       0.12504035       0.11763784
C       -1.19810000      -0.17340000       3.88390000       0.15437299      -0.19390421       0.26200268
O       -2.39160000      -0.23520000       4.57150000       0.42713079      -0.68847680      -0.36299631
C       -2.71480000      -1.45570000       5.12800000       0.07431045       0.26128373       0.37290296
F       -3.62120000      -1.21560000       6.08140000      -0.06965674       0.12161475       0.00845054
F       -3.28260000      -2.24710000       4.19270000       0.18035269       0.08098769      -0.39874804
C       -1.20750000      -0.09730000       2.49580000      -0.04987078      -0.09026010      -0.21853086
C       -0.00000000      -0.00000000       1.78270000       0.02624253      -0.03178286       0.43231034