25
Properties=species:S:1:pos:R:3:MACE_forces:R:3 Energy=-0.4775343029160025 MACE_energy=-0.34508007764816284 pbc="F F F"
C        5.21020000       2.24450000      -1.57850000      -0.07933556      -0.07578887       0.09714222
C        4.20290000       2.56220000      -0.49560000       0.16133334       0.08289103      -0.16222200
O        3.76590000       1.31740000       0.07960000       0.00074315      -0.21446745      -0.02552672
C        2.86590000       1.39910000       1.06820000      -0.30574918       0.27976605       0.14266175
O        2.40460000       2.43040000       1.48470000       0.05947073      -0.22738795      -0.07858276
C        2.54040000       0.01270000       1.61200000      -0.12377899      -0.05746295      -0.10688271
C        1.26510000       0.00000000       2.40490000      -0.03738852       0.13482758      -0.24276957
C       -0.00000000       0.00000000       1.77200000      -0.11450928       0.00008668       0.34307086
S        0.00000000       0.00000000       0.00000000       0.82721937      -0.17812032       0.20219451
C       -1.14320000       0.01320000       2.58250000      -0.24072163       0.01123507      -0.18278912
C       -0.99840000       0.03310000       3.96980000       0.33456382       0.03322994      -0.12400083
N        0.17900000       0.04290000       4.58720000      -0.18973264       0.00139965      -0.38791826
C        1.27040000       0.02960000       3.81300000      -0.44363904      -0.04412765       0.33449608
C        2.54070000       0.04770000       4.50670000       0.47861570      -0.00523662       0.09816896
N        3.57320000       0.05740000       5.03510000      -0.16827244       0.03529813       0.11935249
H        4.75950000       1.61620000      -2.36200000       0.04319629      -0.01570752       0.05246042
H        5.56810000       3.17580000      -2.04390000       0.12213224       0.11700411      -0.14890414
H        6.07760000       1.70920000      -1.16330000      -0.05394255      -0.02054699      -0.04720797
H        3.32320000       3.09650000      -0.88870000      -0.06063776       0.08054594       0.05949004
H        4.63230000       3.19000000       0.30150000      -0.04728279       0.08102269       0.01474935
H        3.39390000      -0.28920000       2.23880000      -0.06931414      -0.17307670      -0.05267545
H        2.50200000      -0.69680000       0.77120000      -0.28251714       0.13278864      -0.13209771
Au      -2.20660000      -0.08920000      -0.63800000      -0.16113062       0.08966299       0.30851328
H       -2.13880000       0.01230000       2.13610000       0.29082566      -0.03718621      -0.20279840
H       -1.88810000       0.04440000       4.60890000       0.05985197      -0.03064930       0.12207561
48
Properties=species:S:1:pos:R:3:MACE_forces:R:3 Energy=3.5567862618807484 MACE_energy=2.637490749359131 pbc="F F F"
C        1.60800000      -0.03160000      10.53490000       0.38613105      -0.13779393       0.31748724
C        1.29440000      -0.35530000       9.11280000       0.04031295      -0.08876595      -0.21058007
C        0.26590000       0.05500000       8.30890000       0.12325831       0.07842818       0.38951197
C        0.49460000      -0.45090000       6.97590000       0.26546681      -0.17609841      -0.17866376
C       -0.40420000      -0.23680000       5.88970000      -0.00202359       0.06640208      -0.00995480
C       -0.21460000      -0.18770000       4.52590000       0.13949841       0.03584541      -0.17367375
C        1.09620000      -0.01330000       3.84650000       0.04055418       0.06609068       0.00705312
O        2.14450000       0.14970000       4.45050000       0.19543755       0.20654173      -0.33202353
N        1.09750000       0.00000000       2.44920000      -0.68493253      -0.18741366       0.24479856
C       -0.00000000      -0.00000000       1.77190000       0.02073503       0.09656103       0.14096139
S        0.00000000       0.00000000       0.00000000      -0.24756712       0.25770652      -0.09430748
N       -1.26860000      -0.00810000       2.32900000       0.21908388       0.03257300      -0.59872520
C       -1.45750000      -0.08470000       3.73330000      -0.27971774       0.05134992       0.27502906
O       -2.58800000      -0.07770000       4.17830000       0.22763783      -0.10870397      -0.24717605
C       -2.43280000       0.15090000       1.51520000       0.24450313       0.05223448       0.13815695
C       -3.13190000      -0.96380000       1.04820000       0.14204381       0.06208624       0.00929171
C       -4.26820000      -0.81400000       0.25730000      -0.17664781      -0.03270602      -0.11611316
C       -4.70720000       0.47500000      -0.05930000       0.06831171      -0.05603102       0.07073380
Cl      -6.12590000       0.68080000      -1.05090000      -0.16337672      -0.06683814      -0.12986834
C       -4.03280000       1.60690000       0.40460000      -0.03526688       0.09254341      -0.04056322
C       -2.89780000       1.43700000       1.19700000       0.06331450      -0.08885898      -0.06216832
Cl      -2.04350000       2.83000000       1.78620000       0.37097460      -0.35139868       0.13603319
C        1.66810000      -1.22510000       7.03090000       0.19685511       0.00135341       0.24664968
C        2.26940000      -2.13840000       6.02500000       0.23479049       0.01036211       0.01388761
N        2.13780000      -1.15340000       8.32060000      -0.21953052      -0.05048181      -0.10519689
C        3.33240000      -1.77130000       8.77760000      -0.25847423       0.14994028      -0.12207791
C        4.56330000      -1.40680000       8.21940000      -0.01033046       0.00765963      -0.17438570
C        5.73310000      -2.01530000       8.66650000       0.14207552      -0.05949817       0.01188629
C        5.69060000      -2.97920000       9.67990000       0.16753885      -0.08381985       0.05854981
Cl       7.16730000      -3.70920000      10.22510000      -0.25292957      -0.22643767       0.27635926
C        4.45390000      -3.34170000      10.24070000      -0.03254028      -0.07730345       0.11278428
Cl       4.35550000      -4.53920000      11.49410000       0.40815121       0.04664037      -0.11258934
C        3.27880000      -2.74280000       9.78030000       0.08659486      -0.04763021       0.22523201
H        0.89400000       0.71770000      10.90270000      -0.02953495       0.11017118       0.05496890
H        2.62440000       0.38180000      10.64420000      -0.06221760       0.22401020      -0.01262419
H        1.54420000      -0.90940000      11.19890000      -0.22057889       0.01788899       0.11490562
H       -0.55150000       0.70810000       8.60810000      -0.19895497       0.19058794       0.05553476
H       -1.44560000      -0.06450000       6.18710000      -0.13475513      -0.10601100       0.11582147
Au       2.30350000       0.10360000      -0.25990000      -0.06288656      -0.10861933       0.36580428
H       -2.76640000      -1.95720000       1.31170000       0.13777241      -0.03578785       0.11299512
H       -4.81400000      -1.68200000      -0.11250000       0.05281674      -0.05271701       0.06422039
H       -4.38470000       2.60710000       0.15560000      -0.19164142       0.26531705      -0.08663042
H        3.04320000      -1.62630000       5.43240000      -0.12431631       0.01041911      -0.22671440
H        1.49870000      -2.45860000       5.31010000      -0.02362439      -0.21345007      -0.04298451
H        2.70360000      -3.02840000       6.50440000      -0.18510333      -0.20297618      -0.11104928
H        4.59620000      -0.64400000       7.44030000       0.01616675       0.20468824       0.11913773
H        6.69960000      -1.74210000       8.24130000      -0.01372876       0.24081722      -0.25911573
H        2.32140000      -3.04840000      10.20110000      -0.37934577      -0.01887709      -0.23060817
37
Properties=species:S:1:pos:R:3:MACE_forces:R:3 Energy=2.122016571456058 MACE_energy=2.054891347885132 pbc="F F F"
F       -4.71450000       2.34050000      -0.05670000      -0.01796866      -0.03372774      -0.10328161
C       -4.15420000       1.18300000       0.31250000      -0.05385584       0.10655040      -0.05613234
C       -4.71530000      -0.01490000      -0.12610000      -0.23381144       0.24292049      -0.14204821
C       -4.12610000      -1.21920000       0.26540000       0.06865571      -0.10278109       0.03728518
C       -2.99310000      -1.22220000       1.08070000       0.15204914       0.01269441      -0.01078383
C       -2.44870000      -0.00510000       1.49750000       0.04879675      -0.18531772       0.01163193
C       -3.02510000       1.21080000       1.12450000      -0.02197268       0.11218364       0.17942260
N       -1.27390000       0.00140000       2.33150000       0.31002831      -0.03318807      -0.68407917
C       -0.00000000       0.00000000       1.76800000      -0.02977318      -0.00024637       0.05251199
S        0.00000000       0.00000000       0.00000000      -0.23007154      -0.01431131      -0.20620815
N        1.09950000       0.00000000       2.44220000      -0.59830010       0.01831057       0.10270803
C        1.09590000       0.00140000       3.83520000       0.24040878      -0.00183883       0.13602744
O        2.13940000      -0.00240000       4.45760000       0.09863325       0.00065246      -0.27263892
C       -0.24110000       0.00890000       4.52920000      -0.04963735       0.00434130      -0.17581919
C       -0.19510000       0.01500000       5.90150000       0.23302940      -0.00316315      -0.33014148
C       -1.17940000       0.02360000       6.93880000      -0.52862734       0.00330002       0.36571035
N       -0.82270000       0.02840000       8.22820000      -0.25321549      -0.00210687      -0.64002723
C       -1.99020000       0.03680000       8.92890000      -0.08117451       0.00027585      -0.05553326
C       -2.21520000       0.04460000      10.32290000      -0.00890407       0.00043666       0.08114880
C       -3.52660000       0.05260000      10.76810000      -0.08119185       0.00009870      -0.05538836
C       -4.61930000       0.05310000       9.85990000      -0.03790064       0.00036413       0.04122368
C       -4.43260000       0.04550000       8.48410000      -0.09042262       0.00159330       0.22306815
C       -3.10460000       0.03730000       8.02720000      -0.06511280       0.00149789       0.25156540
N       -2.55130000       0.02870000       6.78180000       0.74469262       0.00078449       0.73496825
C       -1.46710000       0.00800000       3.72430000      -0.02752641       0.02164759       0.18010117
O       -2.62010000       0.01210000       4.14340000       0.35526949       0.01282144      -0.02703631
H       -5.60040000       0.01270000      -0.76360000       0.12137051      -0.08421673       0.09506382
H       -4.55660000      -2.16480000      -0.07000000      -0.05597970      -0.11048856      -0.01256416
H       -2.52280000      -2.15600000       1.39070000       0.06928904       0.10765420       0.06766394
H       -2.60400000       2.16150000       1.45130000       0.15635701      -0.06443731       0.14960638
Au       2.30830000       0.01200000      -0.26060000      -0.07327689      -0.01039890       0.41985697
H        0.82140000       0.01320000       6.30570000       0.00397108       0.00136288       0.31002271
H       -1.36890000       0.04440000      11.01180000       0.01312097      -0.00086273      -0.16657260
H       -3.73430000       0.05890000      11.84040000      -0.06270411      -0.00006881      -0.06384187
H       -5.63620000       0.05970000      10.25930000       0.21221296      -0.00135327      -0.07215534
H       -5.27680000       0.04610000       7.79230000      -0.01727181       0.00001456      -0.03662668
H       -2.97590000       0.02540000       5.84710000      -0.20918609      -0.00099754      -0.32870823
20
Properties=species:S:1:pos:R:3:MACE_forces:R:3 Energy=0.2504669647107284 MACE_energy=0.7194079756736755 pbc="F F F"
F        4.24940000      -0.80350000       5.25610000      -0.13452056       0.02062363       0.02824550
C        3.45010000      -0.62010000       4.20480000       0.03017455       0.03560909      -0.07279422
O        2.35020000       0.06730000       4.64950000       0.15069887       0.09056485      -0.01910179
C        1.21840000       0.06610000       3.87680000      -0.08684748       0.01030440       0.12987310
C        1.21930000       0.00000000       2.48670000      -0.25826114       0.03611004      -0.06505021
C       -0.00000000       0.00000000       1.78250000      -0.01594645       0.06298055       0.29461870
S        0.00000000       0.00000000       0.00000000      -0.07877219      -0.10179904      -0.02148335
C       -1.20100000       0.09960000       2.48610000       0.16838172       0.00494611      -0.33576804
C       -1.21800000       0.19100000       3.88830000       0.08969102       0.00229270       0.12533832
C        0.00080000       0.16550000       4.57840000       0.02199350      -0.04141649       0.12738827
F        0.06600000       0.22950000       5.89970000      -0.07124837       0.00235185      -0.10235567
C       -2.56400000       0.29570000       4.53440000      -0.11666901       0.02649336       0.29027054
O       -3.59780000       0.28490000       3.90890000      -0.17111930      -0.01415573      -0.30038422
O       -2.52630000       0.40530000       5.87060000       0.25589842      -0.01430311       0.31699884
F        4.13110000       0.11050000       3.28760000      -0.01470757       0.03915638       0.03348222
H        3.18160000      -1.59040000       3.74730000       0.07888870      -0.23625427      -0.01029320
H        2.15930000      -0.03280000       1.93730000      -0.07839839       0.06138234      -0.09797712
Au       0.08030000      -2.24510000      -0.50910000       0.03389574      -0.01694590      -0.04814199
H       -2.15630000       0.10980000       1.96170000       0.17469941       0.03343240      -0.07073138
H       -3.45120000       0.46790000       6.16510000       0.02216853      -0.00137319      -0.20213431
30
Properties=species:S:1:pos:R:3:MACE_forces:R:3 Energy=1.0883750026175885 MACE_energy=1.88028883934021 pbc="F F F"
C        7.17580000      -1.46400000       6.86860000       0.20651603       0.10910548      -0.07209548
C        5.68340000      -1.38340000       6.69690000      -0.14303809      -0.08765516       0.06311240
C        4.85230000      -2.36930000       7.05380000       0.18051890       0.07008857      -0.09086793
C        5.20050000      -0.09200000       6.06800000       0.30438298       0.02383500       0.00403230
N        3.76660000       0.07290000       6.03560000       0.05006412       0.18547150      -0.40161115
C        3.04800000       0.02230000       4.88090000       0.34577149      -0.05765195       0.11620453
O        3.58270000      -0.07710000       3.77730000      -0.24137369       0.05575639      -0.11892161
C        1.55960000       0.09920000       4.99810000      -0.38951728      -0.01534286      -0.30181929
C        0.82940000       0.18920000       6.19140000       0.03899371       0.00070268       0.33903801
C       -0.57290000       0.25290000       6.17610000      -0.09071326       0.00294205       0.02607673
F       -1.20360000       0.33680000       7.36030000      -0.01888111      -0.00634201      -0.03636999
C       -1.32770000       0.23300000       5.01050000       0.00741763      -0.00462267       0.18839775
C       -0.62080000       0.14090000       3.80180000      -0.13222699       0.02844126      -0.07175356
N       -1.08100000       0.07880000       2.50630000       1.11284828       0.68508524       0.06560127
C        0.00000000      -0.00000000       1.75430000      -0.49137679      -0.05399948      -0.16527215
S        0.00000000       0.00000000       0.00000000      -0.32917354      -0.24453399      -0.72863173
N        1.16420000      -0.00000000       2.49650000      -1.60965323      -0.88936502       1.31546140
C        0.80330000       0.07840000       3.81450000       0.48755786       0.07935421      -0.11631792
H        7.48500000      -2.42500000       7.30280000       0.05457777      -0.01701159       0.00851464
H        7.68940000      -1.34180000       5.89880000      -0.00974840      -0.05976769      -0.06626774
H        7.54430000      -0.65390000       7.52230000      -0.06375250      -0.00064735       0.07674833
H        3.77320000      -2.29150000       6.90280000      -0.09644981      -0.21131605       0.09083781
H        5.22990000      -3.29460000       7.49610000      -0.17547391       0.04549084       0.00899148
H        5.54730000      -0.03790000       5.02390000       0.14391924      -0.08449387      -0.09724232
H        5.66450000       0.76130000       6.59720000      -0.18404156      -0.01344270       0.02301072
H        3.27740000       0.12010000       6.91900000      -0.26515085       0.07681067       0.47584268
H        1.31010000       0.21250000       7.17070000       0.16870469      -0.00491992       0.03796759
H       -2.41600000       0.28350000       5.04180000      -0.05447180      -0.02772208       0.00930937
Au       0.92230000      -2.06520000      -0.46350000       0.57759178       0.30587530       0.14250581
H        2.13050000      -0.04430000       2.18600000       0.61617827       0.10987526      -0.72448188
41
Properties=species:S:1:pos:R:3:MACE_forces:R:3 Energy=0.5316791766390302 MACE_energy=0.3054134249687195 pbc="F F F"
C        4.24640000       1.93080000       5.84240000      -0.06180175       0.10978881      -0.13944484
N        4.35370000       0.68370000       6.58990000      -0.35288036       0.36545789       0.10081950
C        5.66090000       0.47770000       7.25500000      -0.12415711      -0.00423328      -0.04749075
C        5.70500000       1.11600000       8.63840000       0.12509945       0.03176548      -0.12034680
C        5.13870000       0.51750000       9.77560000      -0.03527120      -0.09867813       0.14819518
C        5.20400000       1.13650000      11.02520000       0.08037761       0.18482423      -0.01059002
C        5.84130000       2.37310000      11.16690000      -0.15327132      -0.19536026       0.05563758
C        6.41020000       2.99270000      10.05350000       0.07797848       0.15320243      -0.20255646
C        6.32820000       2.35550000       8.81890000       0.19060606       0.06000610      -0.17864892
F        6.87770000       2.97590000       7.74920000      -0.00749236       0.01289615       0.29717171
C        6.13720000      -0.97620000       7.22880000      -0.13113643      -0.21992585       0.09513649
C        3.27820000      -0.10460000       6.90260000       0.44873482      -0.08143569       0.21799031
O        3.28130000      -0.91550000       7.82120000       0.07822379      -0.02876352      -0.15050074
C        2.04870000       0.00200000       6.03480000      -0.40119880      -0.04167044      -0.19455670
C        0.78930000      -0.03460000       6.67070000      -0.02301577       0.05160876       0.12986197
C       -0.37020000      -0.02210000       5.91210000       0.04073073      -0.02998381       0.08778234
C       -0.29550000      -0.00430000       4.50950000       0.23096474       0.00400540       0.01505310
C        0.96210000       0.00040000       3.85640000       0.31204003      -0.00355054       0.05429362
C        2.13000000       0.00940000       4.64540000      -0.30180901       0.01466788      -0.02881505
N        1.08420000      -0.00000000       2.47820000      -0.73111081       0.01588858      -0.44429594
C        0.00000000      -0.00000000       1.77070000      -0.15052813       0.00533590       0.36070216
N       -1.26040000       0.00160000       2.32240000      -0.00949067      -0.00061456       0.07871690
C       -1.52330000      -0.00000000       3.70260000      -0.13963641       0.00176131       0.07845060
O       -2.66550000       0.00160000       4.11620000       0.08792732      -0.00800701      -0.06171044
S        0.00000000       0.00000000       0.00000000      -0.27100012      -0.01436671       0.16565023
H        3.19870000       2.18600000       5.65410000      -0.00367361       0.01810203       0.10132768
H        4.69900000       2.74870000       6.42430000       0.08142935      -0.06088860       0.06298854
H        4.77370000       1.87330000       4.87440000       0.08636094      -0.04066496      -0.02958077
H        6.36400000       1.04510000       6.63150000       0.04827490       0.04127832      -0.14654823
H        4.62040000      -0.43320000       9.65570000      -0.17392696       0.08161376      -0.02814725
H        4.75250000       0.65100000      11.89300000       0.00611195      -0.02080321       0.01626145
H        5.89540000       2.85930000      12.14370000       0.00251607      -0.01829266       0.01265537
H        6.91490000       3.95800000      10.12050000      -0.02584339      -0.00890648       0.14550655
H        6.11280000      -1.35670000       6.19580000       0.09305875      -0.08305041      -0.11043985
H        5.51460000      -1.62990000       7.84850000       0.07636845      -0.23080252       0.02293268
H        7.17570000      -1.02030000       7.58960000       0.14774591       0.19364038      -0.02036438
H        0.75190000      -0.08020000       7.75990000       0.03195903       0.05971027      -0.09167957
H       -1.35870000      -0.03440000       6.37480000      -0.03344256       0.01563199       0.04691811
H        3.09270000       0.00830000       4.13320000       0.30096230      -0.25471243       0.19243658
H       -2.08200000       0.00070000       1.72360000       0.71501601       0.00790298      -0.75410056
Au       2.28950000      -0.03250000      -0.32670000      -0.13179983       0.01562236       0.27332869
21
Properties=species:S:1:pos:R:3:MACE_forces:R:3 Energy=3.3805530797753094 MACE_energy=3.4001212120056152 pbc="F F F"
F        3.25830000      -0.00160000       9.69690000      -0.13818079       0.00000864      -0.05250808
C        2.17470000      -0.00140000       8.90640000       0.08181500       0.00001084      -0.00463157
C        0.90840000      -0.00170000       9.48710000       0.09852930      -0.00004358       0.16690858
C       -0.20680000      -0.00150000       8.64450000       0.06813035       0.00001329       0.00347454
C       -0.06770000      -0.00100000       7.25700000       0.01675581      -0.00003307      -0.01134172
C        1.21860000      -0.00070000       6.67440000      -0.19476160      -0.00006113       0.15218523
C        1.51340000      -0.00030000       5.24400000       0.01504026      -0.00000654      -0.16406301
C        0.76410000      -0.00020000       4.10890000      -0.12300645      -0.00005765       0.04051770
S        1.59010000      -0.00000000       2.52990000       0.57843596      -0.00002459       1.74356759
C        0.00000000       0.00000000       1.73850000      -0.19779935       0.00000566       0.99917072
S        0.00000000       0.00000000       0.00000000      -1.31935477       0.00002584      -2.20513153
N       -1.04020000      -0.00010000       2.50360000       0.66839701      -0.00003610      -1.50964093
C       -0.73010000      -0.00010000       3.86970000       0.11479823       0.00011868       0.07081840
O       -1.58170000      -0.00010000       4.73400000      -0.09266619       0.00008328      -0.29990020
C        2.34540000      -0.00090000       7.53000000       0.18511665      -0.00005556       0.18907529
H        0.81510000      -0.00210000      10.57450000      -0.02984180       0.00004001      -0.11793610
H       -1.20800000      -0.00180000       9.08120000      -0.14995334      -0.00001339      -0.03222401
H       -0.94090000      -0.00090000       6.60940000       0.21382943      -0.00003171       0.25645292
H        2.59340000      -0.00020000       5.05730000       0.00978016       0.00003097       0.15069182
Au      -2.30150000      -0.00010000      -0.29940000       0.28057930      -0.00002319       0.83850479
H        3.35990000      -0.00070000       7.12720000      -0.08564310       0.00004930      -0.21399027
43
Properties=species:S:1:pos:R:3:MACE_forces:R:3 Energy=0.36918266192797033 MACE_energy=0.4947280287742615 pbc="F F F"
S        0.00000000       0.00000000       0.00000000       0.12485651       0.06920049       0.28638959
C        0.00000000       0.00000000       1.78180000       0.33479878       0.02380814       0.31384277
N       -1.09480000      -0.00830000       2.46320000       0.61277640       0.03712563      -0.12717822
C       -1.08690000       0.01450000       3.87100000      -0.19210532      -0.03670177       0.10040385
O       -2.12840000       0.03480000       4.50880000      -0.35676986      -0.06358792      -0.46587670
C        0.22830000       0.04330000       4.50610000      -0.07216729      -0.08225921      -0.11594666
C        0.32060000       0.20420000       5.99790000      -0.12268842      -0.01920225       0.13566706
N        1.67370000       0.57610000       6.38800000       0.13153222       0.03341427       0.14927976
C        2.63800000      -0.28460000       5.73680000      -0.10877496       0.16860223      -0.01270413
N        2.62430000      -0.10480000       4.29080000      -1.08072507       0.30094916       0.07906839
C        1.35920000       0.00410000       3.74530000       0.68250394      -0.13257512      -0.11903186
N        1.26530000       0.00000000       2.35000000      -0.89405823      -0.18299483      -0.90260893
C        2.45390000      -0.02840000       1.54650000       0.02088617       0.00159813       0.00226418
C        3.08570000      -1.24600000       1.27830000      -0.06121678      -0.02784985       0.12153488
C        4.24450000      -1.25640000       0.50170000      -0.01884871       0.04795932       0.01160946
C        4.77410000      -0.06580000      -0.00280000       0.11959358       0.10600202      -0.10340373
C        4.13280000       1.14330000       0.28070000       0.02227972      -0.13036501       0.00325106
Cl       4.78590000       2.63590000      -0.34200000       0.02783271       0.11215202      -0.05172624
C        2.97300000       1.17470000       1.05810000      -0.09440760      -0.02195481       0.06662230
C        1.85430000       0.79050000       7.81500000       0.21518372      -0.03939475       0.23877718
C        2.00430000      -0.44370000       8.73580000       0.01994456       0.01191134       0.07690024
C        2.49260000       0.18410000      10.04290000       0.07937954      -0.04661655      -0.11592778
C        3.53160000       1.23060000       9.58280000      -0.01593658      -0.01821834      -0.05099060
C        3.07550000       1.67770000       8.17000000      -0.04618631       0.14667971       0.00218336
Au      -2.31360000      -0.00580000      -0.21150000       0.11582668       0.02701106       0.46965057
H       -0.03380000      -0.72630000       6.49810000      -0.04729646       0.03418440      -0.13424739
H       -0.38410000       0.99400000       6.30420000       0.20925097      -0.08984780       0.04112541
H        3.65080000      -0.06900000       6.10120000       0.09006766      -0.13043624      -0.03461228
H        2.43610000      -1.36040000       5.93160000      -0.01059412      -0.02887469       0.08402506
H        3.30820000       0.55300000       3.92510000       0.72847098       0.08883626      -0.04717459
H        2.66070000      -2.16750000       1.67690000      -0.05062828       0.13820574      -0.01922776
H        4.74360000      -2.20240000       0.28200000       0.05422161      -0.07036190      -0.01027581
H        5.67780000      -0.06670000      -0.61350000      -0.06500725      -0.14796415       0.07801194
H        2.46740000       2.11710000       1.26830000      -0.28413522      -0.05578540       0.11784413
H        0.94910000       1.32420000       8.14930000       0.11204321      -0.06125724      -0.16697270
H        2.77570000      -1.12670000       8.33860000      -0.10491226       0.14109114      -0.06194234
H        1.07320000      -1.02070000       8.84140000       0.03459147      -0.06928781      -0.10454062
H        1.64730000       0.68530000      10.54490000       0.02528856       0.00423513       0.02802113
H        2.90430000      -0.54590000      10.75620000      -0.05859428       0.06917483       0.13228917
H        3.61450000       2.07100000      10.28800000       0.06130626      -0.00481346       0.09770445
H        4.52870000       0.76440000       9.53040000      -0.05862825      -0.00787076       0.02066622
H        2.80400000       2.74230000       8.12330000       0.00929134      -0.03446537      -0.06465155
H        3.87990000       1.53440000       7.43240000      -0.08824550      -0.05945567       0.05190783
22
Properties=species:S:1:pos:R:3:MACE_forces:R:3 Energy=0.3550844905847789 MACE_energy=0.2483670711517334 pbc="F F F"
C       -0.45210000       0.80650000       6.72440000       0.00691374       0.32760885       0.21186520
O        0.03630000      -0.29550000       5.95050000       0.10831153      -0.07727478      -0.34491101
C        0.01110000      -0.16430000       4.60400000      -0.09132732       0.03899881       0.17957535
C       -1.19810000      -0.17340000       3.88390000       0.01534922       0.06039916       0.28137141
O       -2.39160000      -0.23520000       4.57150000       0.09854636      -0.08512230      -0.00165652
C       -2.71480000      -1.45570000       5.12800000      -0.05278076      -0.08248443       0.10082053
F       -3.62120000      -1.21560000       6.08140000       0.02240730       0.07451820      -0.10286392
F       -3.28260000      -2.24710000       4.19270000       0.07216743       0.06724428       0.03753522
C       -1.20750000      -0.09730000       2.49580000       0.02671584      -0.07323155      -0.23401751
C       -0.00000000      -0.00000000       1.78270000       0.03011455      -0.09888922       0.30583191