25
Properties=species:S:1:pos:R:3:MACE_forces:R:3 Energy=-0.4775343029160025 MACE_energy=-0.3335515260696411 pbc="F F F"
C        5.21020000       2.24450000      -1.57850000       0.03100075      -0.05343119       0.00992662
C        4.20290000       2.56220000      -0.49560000       0.19167933       0.26679572      -0.00848154
O        3.76590000       1.31740000       0.07960000       0.20308158      -0.11810050      -0.29052955
C        2.86590000       1.39910000       1.06820000      -0.47332963       0.20914087      -0.11253200
O        2.40460000       2.43040000       1.48470000      -0.20774879      -0.16871084       0.45961022
C        2.54040000       0.01270000       1.61200000      -0.16840892      -0.21432227      -0.56471485
C        1.26510000       0.00000000       2.40490000      -0.41204736      -0.00022861      -0.45121607
C       -0.00000000       0.00000000       1.77200000       0.04412029       0.03516440      -0.12353455
S        0.00000000       0.00000000       0.00000000       1.25917423      -0.12449563       0.90680802
C       -1.14320000       0.01320000       2.58250000      -0.07967141       0.04758745      -0.10831717
C       -0.99840000       0.03310000       3.96980000       0.13784561       0.14333431       0.07796153
N        0.17900000       0.04290000       4.58720000      -0.23450133      -0.10773223       0.01380661
C        1.27040000       0.02960000       3.81300000      -0.53135568       0.09061255       0.13126086
C        2.54070000       0.04770000       4.50670000       0.86524677       0.02859505       0.29122648
N        3.57320000       0.05740000       5.03510000      -0.44777745       0.03363306       0.08922815
H        4.75950000       1.61620000      -2.36200000       0.02773745      -0.16922161       0.05804538
H        5.56810000       3.17580000      -2.04390000       0.30532920       0.34495434      -0.35814065
H        6.07760000       1.70920000      -1.16330000      -0.00311780      -0.14369985      -0.13182704
H        3.32320000       3.09650000      -0.88870000      -0.10068581      -0.19628930       0.11172363
H        4.63230000       3.19000000       0.30150000      -0.16394421      -0.11203036       0.14527316
H        3.39390000      -0.28920000       2.23880000       0.17835401       0.00778842      -0.32703799
H        2.50200000      -0.69680000       0.77120000      -0.03061304       0.21903913       0.07107188
Au      -2.20660000      -0.08920000      -0.63800000       0.11121474       0.06530129      -0.11848700
H       -2.13880000       0.01230000       2.13610000      -0.88252985       0.01919780       0.42936763
H       -1.88810000       0.04440000       4.60890000       0.38094714      -0.10288194      -0.20049167
48
Properties=species:S:1:pos:R:3:MACE_forces:R:3 Energy=3.5567862618807484 MACE_energy=3.770477771759033 pbc="F F F"
C        1.60800000      -0.03160000      10.53490000       0.13927369       0.01280719      -0.21277595
C        1.29440000      -0.35530000       9.11280000      -0.09636917       0.37317172       0.96731329
C        0.26590000       0.05500000       8.30890000      -0.51965076       0.38762408       0.21271488
C        0.49460000      -0.45090000       6.97590000       0.28234097       0.03969438       0.03490025
C       -0.40420000      -0.23680000       5.88970000       0.37664568      -0.18986139       0.00767860
C       -0.21460000      -0.18770000       4.52590000       0.15411195       0.07969326      -0.33627507
C        1.09620000      -0.01330000       3.84650000      -0.37257558       0.67909336       0.53190464
O        2.14450000       0.14970000       4.45050000       0.17859972      -0.09054434      -1.33995259
N        1.09750000       0.00000000       2.44920000      -0.81722152      -0.22583057      -0.09830248
C       -0.00000000      -0.00000000       1.77190000       0.34425944       0.01147310       0.36853623
S        0.00000000       0.00000000       0.00000000      -0.06428559      -0.02348961      -1.13759005
N       -1.26860000      -0.00810000       2.32900000       0.54185879      -0.14056697      -0.45920098
C       -1.45750000      -0.08470000       3.73330000      -0.21737093       0.22153920       0.43440220
O       -2.58800000      -0.07770000       4.17830000      -0.28806061      -0.29468918      -0.07756320
C       -2.43280000       0.15090000       1.51520000       0.50654340      -0.18649995      -0.26280040
C       -3.13190000      -0.96380000       1.04820000      -0.01250960       0.23099700       0.32185307
C       -4.26820000      -0.81400000       0.25730000       0.03441657      -0.05698612       0.07119630
C       -4.70720000       0.47500000      -0.05930000       0.32909447       0.08267303       0.03600249
Cl      -6.12590000       0.68080000      -1.05090000      -0.20379712      -0.09938689      -0.13485780
C       -4.03280000       1.60690000       0.40460000      -0.10598749      -0.48052540      -0.14742160
C       -2.89780000       1.43700000       1.19700000      -0.39610666       0.32880488      -0.05454468
Cl      -2.04350000       2.83000000       1.78620000       0.53071970      -0.01054110       0.31140286
C        1.66810000      -1.22510000       7.03090000       0.03068477      -0.36083522      -0.79049128
C        2.26940000      -2.13840000       6.02500000      -0.22957408      -0.24832574       0.25815776
N        2.13780000      -1.15340000       8.32060000      -0.11055878      -0.43034747       0.09297964
C        3.33240000      -1.77130000       8.77760000       0.76511693      -0.04223752      -0.14870512
C        4.56330000      -1.40680000       8.21940000       0.05470539       0.21137747      -0.02575975
C        5.73310000      -2.01530000       8.66650000      -0.10014264      -0.04411107       0.04851089
C        5.69060000      -2.97920000       9.67990000      -0.75813985       0.06249039       0.06265758
Cl       7.16730000      -3.70920000      10.22510000      -0.00069228      -0.57282907       0.56043583
C        4.45390000      -3.34170000      10.24070000       0.30535984       0.22906235      -0.26674217
Cl       4.35550000      -4.53920000      11.49410000       0.79309678      -0.37108046       0.26492846
C        3.27880000      -2.74280000       9.78030000       0.05106317      -0.14124802       0.06935756
H        0.89400000       0.71770000      10.90270000      -0.11478556       0.04206635       0.06538722
H        2.62440000       0.38180000      10.64420000      -0.14238402      -0.15434384       0.22162496
H        1.54420000      -0.90940000      11.19890000       0.19786514       0.36390457       0.05630245
H       -0.55150000       0.70810000       8.60810000       0.27952933       0.04192379       0.18612809
H       -1.44560000      -0.06450000       6.18710000      -1.05134737       0.07495467      -0.02697413
Au       2.30350000       0.10360000      -0.25990000      -0.32777068       0.00157697       0.77670920
H       -2.76640000      -1.95720000       1.31170000       0.36868435       0.08482734      -0.03837119
H       -4.81400000      -1.68200000      -0.11250000      -0.13892023      -0.01963902       0.00499949
H       -4.38470000       2.60710000       0.15560000      -0.09064391       0.32116652       0.06713756
H        3.04320000      -1.62630000       5.43240000      -0.02336601      -0.29820299      -0.03714362
H        1.49870000      -2.45860000       5.31010000       0.52947521      -0.13153313       0.31760639
H        2.70360000      -3.02840000       6.50440000      -0.12164168       0.23733756      -0.29895201
H        4.59620000      -0.64400000       7.44030000       0.17149988       0.19606961       0.13276573
H        6.69960000      -1.74210000       8.24130000      -0.02037199       0.35522038      -0.43029648
H        2.32140000      -3.04840000      10.20110000      -0.64067119      -0.05589395      -0.15887310
37
Properties=species:S:1:pos:R:3:MACE_forces:R:3 Energy=2.122016571456058 MACE_energy=2.168288230895996 pbc="F F F"
F       -4.71450000       2.34050000      -0.05670000       0.03592689       0.01630312      -0.05893676
C       -4.15420000       1.18300000       0.31250000       0.12783606      -0.29600906       0.00464364
C       -4.71530000      -0.01490000      -0.12610000      -0.08928087      -0.03313392      -0.22621325
C       -4.12610000      -1.21920000       0.26540000      -0.02810523       0.04555818      -0.08781123
C       -2.99310000      -1.22220000       1.08070000       0.09026578      -0.15499556       0.28385895
C       -2.44870000      -0.00510000       1.49750000      -0.00439012       0.00733489      -0.09461955
C       -3.02510000       1.21080000       1.12450000       0.14986306       0.09251152       0.55692756
N       -1.27390000       0.00140000       2.33150000      -0.16401075      -0.16907847      -0.04884812
C       -0.00000000       0.00000000       1.76800000       0.87689269       0.04500910       0.19244522
S        0.00000000       0.00000000       0.00000000      -0.16009769       0.04544092      -0.39068735
N        1.09950000       0.00000000       2.44220000      -1.32144821       0.00988591      -0.01256634
C        1.09590000       0.00140000       3.83520000      -0.07368299      -0.01344487       0.69905096
O        2.13940000      -0.00240000       4.45760000       0.16483988       0.01016729      -1.35820866
C       -0.24110000       0.00890000       4.52920000      -0.04030651      -0.02508687      -0.43712693
C       -0.19510000       0.01500000       5.90150000       0.14732805      -0.00651007      -0.38456428
C       -1.17940000       0.02360000       6.93880000      -0.28670079      -0.00294455       0.38880780
N       -0.82270000       0.02840000       8.22820000      -0.31135470      -0.00160444      -0.39858547
C       -1.99020000       0.03680000       8.92890000      -0.49655977      -0.00172376      -0.00156469
C       -2.21520000       0.04460000      10.32290000      -0.14571366       0.00221277       0.36751056
C       -3.52660000       0.05260000      10.76810000      -0.10423170      -0.00153360      -0.41221648
C       -4.61930000       0.05310000       9.85990000       0.36682177      -0.00175726       0.09336869
C       -4.43260000       0.04550000       8.48410000       0.26616037       0.00131332       0.03778246
C       -3.10460000       0.03730000       8.02720000       0.11076666       0.00431244      -0.34237033
N       -2.55130000       0.02870000       6.78180000       1.00121439      -0.01412799       0.57070822
C       -1.46710000       0.00800000       3.72430000       0.10029851       0.07128008      -0.06728180
O       -2.62010000       0.01210000       4.14340000       0.23088375      -0.03717614      -1.95127106
H       -5.60040000       0.01270000      -0.76360000       0.40178716       0.13730498       0.35204083
H       -4.55660000      -2.16480000      -0.07000000      -0.24914923      -0.10845954      -0.14221816
H       -2.52280000      -2.15600000       1.39070000       0.22040299       0.51011568       0.09522234
H       -2.60400000       2.16150000       1.45130000       0.01773167      -0.22399980      -0.10639929
Au       2.30830000       0.01200000      -0.26060000      -0.31752566       0.00963645       0.98363531
H        0.82140000       0.01320000       6.30570000       0.40833607       0.02788970       0.72278237
H       -1.36890000       0.04440000      11.01180000       0.04670935      -0.00017205       0.00427475
H       -3.73430000       0.05890000      11.84040000       0.04995709      -0.00041454      -0.02985539
H       -5.63620000       0.05970000      10.25930000       0.01617647      -0.00033634       0.04398561
H       -5.27680000       0.04610000       7.79230000      -0.00909856       0.00147804      -0.14585693
H       -2.97590000       0.02540000       5.84710000      -1.02854264       0.05475444       1.30015743
20
Properties=species:S:1:pos:R:3:MACE_forces:R:3 Energy=0.2504669647107284 MACE_energy=0.5701802968978882 pbc="F F F"
F        4.24940000      -0.80350000       5.25610000       0.03689687      -0.01140346       0.04675556
C        3.45010000      -0.62010000       4.20480000       0.02768604      -0.00601735      -0.06790847
O        2.35020000       0.06730000       4.64950000       0.13212417       0.00932286      -0.30982739
C        1.21840000       0.06610000       3.87680000       0.18210296       0.04078953       0.14807962
C        1.21930000       0.00000000       2.48670000      -0.12597123      -0.17724206      -0.08366659
C       -0.00000000       0.00000000       1.78250000      -0.13207549      -0.18241945       0.25667208
S        0.00000000       0.00000000       0.00000000      -0.15077353      -0.09875360      -0.14867233
C       -1.20100000       0.09960000       2.48610000       0.72999704      -0.05026969      -0.13212529
C       -1.21800000       0.19100000       3.88830000      -0.13318150       0.00222086      -0.15764461
C        0.00080000       0.16550000       4.57840000      -0.41025013       0.06610358       0.46302429
F        0.06600000       0.22950000       5.89970000      -0.19247553      -0.02138761       0.03283508
C       -2.56400000       0.29570000       4.53440000      -0.44742101       0.00800330      -0.11085954
O       -3.59780000       0.28490000       3.90890000       0.16454072       0.04069614       0.55677319
O       -2.52630000       0.40530000       5.87060000       0.80059427      -0.11479219      -0.60549986
F        4.13110000       0.11050000       3.28760000       0.00297053      -0.14408600       0.09071316
H        3.18160000      -1.59040000       3.74730000      -0.08870204      -0.00986392       0.14043021
H        2.15930000      -0.03280000       1.93730000      -0.18961734       0.40106726      -0.18818617
Au       0.08030000      -2.24510000      -0.50910000      -0.00574813       0.22924842       0.24270032
H       -2.15630000       0.10980000       1.96170000       0.12454378       0.00907190      -0.21685745
H       -3.45120000       0.46790000       6.16510000      -0.32524067       0.00971148       0.04326418
30
Properties=species:S:1:pos:R:3:MACE_forces:R:3 Energy=1.0883750026175885 MACE_energy=1.4502366781234741 pbc="F F F"
C        7.17580000      -1.46400000       6.86860000       0.16408585       0.11123469       0.01930354
C        5.68340000      -1.38340000       6.69690000      -0.23697041       0.12854971       0.10837680
C        4.85230000      -2.36930000       7.05380000      -0.09886508       0.20403039       0.07697847
C        5.20050000      -0.09200000       6.06800000      -0.20933665       0.11693729      -0.33514220
N        3.76660000       0.07290000       6.03560000       0.01298764       0.32309580       0.23879083
C        3.04800000       0.02230000       4.88090000       0.09772095       0.12022254      -0.20379089
O        3.58270000      -0.07710000       3.77730000      -0.97651911       0.10952321      -0.13209546
C        1.55960000       0.09920000       4.99810000      -0.45077810       0.04706780      -0.25011989
C        0.82940000       0.18920000       6.19140000      -0.04761916      -0.06320152      -0.12113060
C       -0.57290000       0.25290000       6.17610000       0.24142227      -0.02443563      -0.24753207
F       -1.20360000       0.33680000       7.36030000       0.04026808      -0.03923379      -0.22649080
C       -1.32770000       0.23300000       5.01050000       0.16988623      -0.05524661      -0.13994227
C       -0.62080000       0.14090000       3.80180000      -0.29490057       0.03200454       0.06936605
N       -1.08100000       0.07880000       2.50630000       0.04943180       0.08450395       0.90662670
C        0.00000000      -0.00000000       1.75430000       0.37302727       0.14093131       0.50822431
S        0.00000000       0.00000000       0.00000000      -0.46900845      -0.41129762      -2.72402811
N        1.16420000      -0.00000000       2.49650000      -2.22716093       0.05438571       1.43147326
C        0.80330000       0.07840000       3.81450000       0.95245242      -0.08533292      -0.55835193
H        7.48500000      -2.42500000       7.30280000      -0.22947651       0.11225942      -0.12589397
H        7.68940000      -1.34180000       5.89880000       0.24265310      -0.17434110      -0.06691047
H        7.54430000      -0.65390000       7.52230000       0.23290917      -0.04587884       0.16130842
H        3.77320000      -2.29150000       6.90280000       0.10233395       0.05417150       0.02516148
H        5.22990000      -3.29460000       7.49610000      -0.06972338      -0.26089144       0.01424999
H        5.54730000      -0.03790000       5.02390000      -0.02650169      -0.33176848      -0.72698450
H        5.66450000       0.76130000       6.59720000      -0.12663476       0.16553959       0.30751878
H        3.27740000       0.12010000       6.91900000       0.23191574      -0.51574367       0.88870049
H        1.31010000       0.21250000       7.17070000      -0.11640567       0.05115036      -0.19413897
H       -2.41600000       0.28350000       5.04180000      -0.15756509       0.13557042       0.86051404
Au       0.92230000      -2.06520000      -0.46350000       0.26958549       0.44073254       0.18120958
H        2.13050000      -0.04430000       2.18600000       2.55678535      -0.42453909       0.25474972
41
Properties=species:S:1:pos:R:3:MACE_forces:R:3 Energy=0.5316791766390302 MACE_energy=0.8636230230331421 pbc="F F F"
C        4.24640000       1.93080000       5.84240000       0.37675130       0.09077793      -0.46393278
N        4.35370000       0.68370000       6.58990000      -0.63700795      -0.26987693      -0.04114223
C        5.66090000       0.47770000       7.25500000      -0.47768196       0.50883114      -0.22796524
C        5.70500000       1.11600000       8.63840000      -0.29124230       0.19777933      -0.08517336
C        5.13870000       0.51750000       9.77560000       0.16181904      -0.27481997       0.26905155
C        5.20400000       1.13650000      11.02520000       0.10084015       0.14875184      -0.06654885
C        5.84130000       2.37310000      11.16690000      -0.14993331      -0.16293795       0.09045311
C        6.41020000       2.99270000      10.05350000       0.23030797       0.28289977      -0.34454802
C        6.32820000       2.35550000       8.81890000       0.21393505      -0.24302736       0.11788467
F        6.87770000       2.97590000       7.74920000       0.12745495       0.36789215       0.09346950
C        6.13720000      -0.97620000       7.22880000      -0.00627577      -0.19127293       0.09359653
C        3.27820000      -0.10460000       6.90260000       0.70945227       0.33875716       0.35246181
O        3.28130000      -0.91550000       7.82120000      -0.10846327      -0.65144616       0.11423153
C        2.04870000       0.00200000       6.03480000      -0.33980703       0.31773758      -0.48798311
C        0.78930000      -0.03460000       6.67070000      -0.24920322       0.02007900      -0.00998662
C       -0.37020000      -0.02210000       5.91210000       0.10415916      -0.02629281       0.58077055
C       -0.29550000      -0.00430000       4.50950000       0.27146912       0.05155017      -0.63985085
C        0.96210000       0.00040000       3.85640000      -0.02701825      -0.02673795      -0.21211502
C        2.13000000       0.00940000       4.64540000      -0.25289309      -0.15639384       0.55380350
N        1.08420000      -0.00000000       2.47820000      -1.76702642       0.07333874       0.01794890
C        0.00000000      -0.00000000       1.77070000       0.21189114      -0.01407899       0.80190152
N       -1.26040000       0.00160000       2.32240000       1.39636719      -0.00447343      -0.05890914
C       -1.52330000      -0.00000000       3.70260000       0.30550975      -0.01337826       0.14129835
O       -2.66550000       0.00160000       4.11620000      -0.66115737       0.03629545      -0.06339274
S        0.00000000       0.00000000       0.00000000      -0.32941288      -0.04704046      -0.72514886
H        3.19870000       2.18600000       5.65410000      -0.60542500      -0.13140678       0.32052398
H        4.69900000       2.74870000       6.42430000       0.48154750      -0.09527649       0.20220256
H        4.77370000       1.87330000       4.87440000       0.13907358       0.00158180       0.08270141
H        6.36400000       1.04510000       6.63150000       0.30516687       0.09885435      -0.16343692
H        4.62040000      -0.43320000       9.65570000      -0.11535254       0.51389080       0.04371355
H        4.75250000       0.65100000      11.89300000      -0.02294469      -0.06111244      -0.02354882
H        5.89540000       2.85930000      12.14370000       0.02465525       0.01472221      -0.00085738
H        6.91490000       3.95800000      10.12050000      -0.17617708      -0.15113811       0.17347242
H        6.11280000      -1.35670000       6.19580000      -0.11525825       0.09690650       0.00791168
H        5.51460000      -1.62990000       7.84850000       0.12629583      -0.28569555      -0.07647778
H        7.17570000      -1.02030000       7.58960000       0.32715976      -0.15055494       0.10692520
H        0.75190000      -0.08020000       7.75990000       0.19227552      -0.07884628      -0.09592755
H       -1.35870000      -0.03440000       6.37480000       0.01447713       0.03864685      -0.27396485
H        3.09270000       0.00830000       4.13320000       1.23364615      -0.21796151       0.00070807
H       -2.08200000       0.00070000       1.72360000      -0.43803328      -0.01850320      -0.69272333
Au       2.28950000      -0.03250000      -0.32670000      -0.28394064       0.07297949       0.58860320
21
Properties=species:S:1:pos:R:3:MACE_forces:R:3 Energy=3.3805530797753094 MACE_energy=3.3758327960968018 pbc="F F F"
F        3.25830000      -0.00160000       9.69690000      -0.01231626       0.00001591       0.01333244
C        2.17470000      -0.00140000       8.90640000      -0.42128807       0.00006079      -0.39502808
C        0.90840000      -0.00170000       9.48710000       0.10854319      -0.00002810      -0.01015912
C       -0.20680000      -0.00150000       8.64450000       0.28799760       0.00001999      -0.07343070
C       -0.06770000      -0.00100000       7.25700000       0.59043324      -0.00003238       0.48831719
C        1.21860000      -0.00070000       6.67440000      -0.38595083      -0.00012274       0.44293749
C        1.51340000      -0.00030000       5.24400000       0.13669932       0.00011256      -0.68511915
C        0.76410000      -0.00020000       4.10890000       0.11793783      -0.00003452      -0.21339266
S        1.59010000      -0.00000000       2.52990000       0.58598214      -0.00002701       0.95545316
C        0.00000000       0.00000000       1.73850000      -0.98841453       0.00001910       0.45929205
S        0.00000000       0.00000000       0.00000000      -0.48658964       0.00002735      -1.74296761
N       -1.04020000      -0.00010000       2.50360000      -0.27515289      -0.00018506      -1.51420760
C       -0.73010000      -0.00010000       3.86970000       0.07874894       0.00023935       0.14562815
O       -1.58170000      -0.00010000       4.73400000       0.46010897       0.00014990      -0.07575300
C        2.34540000      -0.00090000       7.53000000       0.00532279      -0.00014194       0.27832723
H        0.81510000      -0.00210000      10.57450000       0.05589904       0.00014460      -0.27365920
H       -1.20800000      -0.00180000       9.08120000      -0.26573598      -0.00009197       0.20338398
H       -0.94090000      -0.00090000       6.60940000      -0.43229860      -0.00023206       0.30935514
H        2.59340000      -0.00020000       5.05730000       0.27712128      -0.00005687       0.99452317
Au      -2.30150000      -0.00010000      -0.29940000       0.59885812       0.00002945       1.05326223
H        3.35990000      -0.00070000       7.12720000      -0.03590561       0.00013364      -0.36009526
43
Properties=species:S:1:pos:R:3:MACE_forces:R:3 Energy=0.36918266192797033 MACE_energy=0.9534146785736084 pbc="F F F"
S        0.00000000       0.00000000       0.00000000       0.29429555       0.18448983      -0.30147770
C        0.00000000       0.00000000       1.78180000      -0.47634205       0.07957047      -0.06075108
N       -1.09480000      -0.00830000       2.46320000       0.89930093      -0.18819541       0.17670304
C       -1.08690000       0.01450000       3.87100000       0.41115034       0.04869144       0.22107238
O       -2.12840000       0.03480000       4.50880000      -0.66100252      -0.07748547      -0.39861867
C        0.22830000       0.04330000       4.50610000       0.19610512       0.00048193       0.32383052
C        0.32060000       0.20420000       5.99790000      -0.28006664      -0.12752236      -0.72464442
N        1.67370000       0.57610000       6.38800000       0.48672292       0.19341326       0.31191000
C        2.63800000      -0.28460000       5.73680000      -0.20184895      -0.14873752      -0.54622257
N        2.62430000      -0.10480000       4.29080000      -0.32798147      -0.23602697       0.98417950
C        1.35920000       0.00410000       3.74530000       0.16091758      -0.20144236      -0.41400319
N        1.26530000       0.00000000       2.35000000      -0.12742098      -0.09746887       0.34036005
C        2.45390000      -0.02840000       1.54650000      -0.02782885      -0.01931765      -0.38357088
C        3.08570000      -1.24600000       1.27830000      -0.32655093      -0.16551739       0.09161845
C        4.24450000      -1.25640000       0.50170000      -0.01935533      -0.08627558      -0.12164553
C        4.77410000      -0.06580000      -0.00280000       0.07177846       0.31857219      -0.32181823
C        4.13280000       1.14330000       0.28070000      -0.06995254      -0.11089489      -0.04643435
Cl       4.78590000       2.63590000      -0.34200000       0.23515041       0.54243529      -0.19412944
C        2.97300000       1.17470000       1.05810000      -0.25158519      -0.23404019       0.37816399
C        1.85430000       0.79050000       7.81500000       0.10152596      -0.30871233       0.00402677
C        2.00430000      -0.44370000       8.73580000      -0.02723002       0.41413295      -0.55402035
C        2.49260000       0.18410000      10.04290000      -0.00245130      -0.09874674       0.23352177
C        3.53160000       1.23060000       9.58280000       0.30114311       0.02885932      -0.06525284
C        3.07550000       1.67770000       8.17000000       0.20245020      -0.36829257      -0.19597350
Au      -2.31360000      -0.00580000      -0.21150000       0.10736954       0.03350626       0.31675088
H       -0.03380000      -0.72630000       6.49810000       0.09156755      -0.54387641       0.01275519
H       -0.38410000       0.99400000       6.30420000       0.22642863       0.25097388       0.42546508
H        3.65080000      -0.06900000       6.10120000      -0.19473386       0.25362408       0.00709652
H        2.43610000      -1.36040000       5.93160000      -0.41726360      -0.01434304       0.00535278
H        3.30820000       0.55300000       3.92510000       0.43838868       0.67168093      -0.87446499
H        2.66070000      -2.16750000       1.67690000       0.01977689       0.09629194       0.06075002
H        4.74360000      -2.20240000       0.28200000       0.14417401      -0.12752533       0.07836159
H        5.67780000      -0.06670000      -0.61350000      -0.00307870      -0.40401125       0.21503326
H        2.46740000       2.11710000       1.26830000      -0.19056672       0.03191906       0.29142877
H        0.94910000       1.32420000       8.14930000      -0.03110776       0.61490148       0.05534340
H        2.77570000      -1.12670000       8.33860000      -0.29609540      -0.41448009      -0.06474671
H        1.07320000      -1.02070000       8.84140000      -0.25850642      -0.38340595       0.30702862
H        1.64730000       0.68530000      10.54490000      -0.00810192       0.03977774      -0.05301100
H        2.90430000      -0.54590000      10.75620000       0.04849615       0.10043965       0.24491072
H        3.61450000       2.07100000      10.28800000       0.07028657      -0.05632111      -0.01151599
H        4.52870000       0.76440000       9.53040000       0.21020542       0.28790504       0.27726427
H        2.80400000       2.74230000       8.12330000      -0.15471409       0.09449796       0.01831661
H        3.87990000       1.53440000       7.43240000      -0.36344901       0.12647457      -0.04894274
22
Properties=species:S:1:pos:R:3:MACE_forces:R:3 Energy=0.3550844905847789 MACE_energy=0.09591275453567505 pbc="F F F"
C       -0.45210000       0.80650000       6.72440000      -0.22914821      -0.16116765       0.23802587
O        0.03630000      -0.29550000       5.95050000      -0.12198400       0.27747321       0.27165309
C        0.01110000      -0.16430000       4.60400000      -0.30291158      -0.06422019       0.05740079
C       -1.19810000      -0.17340000       3.88390000      -0.00016634      -0.02726524       0.69971603
O       -2.39160000      -0.23520000       4.57150000       0.49150974      -0.05871310      -0.32233453
C       -2.71480000      -1.45570000       5.12800000       0.12447037       0.11227396       0.28816628
F       -3.62120000      -1.21560000       6.08140000      -0.10503355      -0.03426041       0.02588108
F       -3.28260000      -2.24710000       4.19270000      -0.14153771      -0.18331939       0.00446619
C       -1.20750000      -0.09730000       2.49580000      -0.06700595       0.05486961      -0.45149410
C       -0.00000000      -0.00000000       1.78270000      -0.07272034       0.14330091       0.09222431