25
Properties=species:S:1:pos:R:3:MACE_forces:R:3 Energy=-0.4775343029160025 MACE_energy=0.77787846326828 pbc="F F F"
C        5.21020000       2.24450000      -1.57850000       0.00606546       0.04565813      -0.07748860
C        4.20290000       2.56220000      -0.49560000      -0.00497717       0.69738245       0.06633636
O        3.76590000       1.31740000       0.07960000       0.03689507       0.97926515      -0.08369110
C        2.86590000       1.39910000       1.06820000       0.03056658       0.52005833      -0.44657597
O        2.40460000       2.43040000       1.48470000      -0.03578441       0.95982337       0.45510429
C        2.54040000       0.01270000       1.61200000      -0.38255507      -0.02224227      -0.17076765
C        1.26510000       0.00000000       2.40490000      -0.40536857      -0.15905014       0.32847172
C       -0.00000000       0.00000000       1.77200000      -0.00419028       0.01178354       1.22916460
S        0.00000000       0.00000000       0.00000000       0.67965031      -0.41427016      -1.38275361
C       -1.14320000       0.01320000       2.58250000      -0.00590727       0.11162060       0.23592544
C       -0.99840000       0.03310000       3.96980000       0.11246158       0.10349683      -0.33039773
N        0.17900000       0.04290000       4.58720000      -0.56507659      -0.10742820      -0.05762854
C        1.27040000       0.02960000       3.81300000       0.35856497      -0.18320115      -0.13822490
C        2.54070000       0.04770000       4.50670000       0.02266829      -0.05765543      -0.32110101
N        3.57320000       0.05740000       5.03510000      -0.03253859       0.02751027       0.43627459
H        4.75950000       1.61620000      -2.36200000       0.38699198      -0.12464352      -0.27554452
H        5.56810000       3.17580000      -2.04390000       0.30082634      -0.14189976      -0.35483664
H        6.07760000       1.70920000      -1.16330000       0.26271638      -0.21311957      -0.34898198
H        3.32320000       3.09650000      -0.88870000      -0.26946568      -0.55390257       0.14789817
H        4.63230000       3.19000000       0.30150000      -0.39702594      -0.75600863       0.47321039
H        3.39390000      -0.28920000       2.23880000       0.17691863      -0.41694242       0.43006682
H        2.50200000      -0.69680000       0.77120000      -0.72853589      -0.14850052      -0.23321480
Au      -2.20660000      -0.08920000      -0.63800000       0.23297188      -0.00630469       0.73029965
H       -2.13880000       0.01230000       2.13610000      -0.34696525      -0.06857477      -1.12128532
H       -1.88810000       0.04440000       4.60890000       0.57109308      -0.08285511       0.80974019
48
Properties=species:S:1:pos:R:3:MACE_forces:R:3 Energy=3.5567862618807484 MACE_energy=3.511906147003174 pbc="F F F"
C        1.60800000      -0.03160000      10.53490000       0.57184827      -0.14642164      -0.11576745
C        1.29440000      -0.35530000       9.11280000      -0.00145708      -0.15017748       0.15635768
C        0.26590000       0.05500000       8.30890000      -0.28420740       0.61391377       0.38457188
C        0.49460000      -0.45090000       6.97590000      -0.14049852      -0.01130328      -0.00757031
C       -0.40420000      -0.23680000       5.88970000       0.63031030       0.16752082      -0.03251764
C       -0.21460000      -0.18770000       4.52590000      -0.30194521       0.47038883      -0.48650947
C        1.09620000      -0.01330000       3.84650000      -0.39970306       0.09278211      -1.27951550
O        2.14450000       0.14970000       4.45050000       1.16484022       0.03203997      -0.03392574
N        1.09750000       0.00000000       2.44920000      -0.74825680       0.04286761      -0.17584258
C       -0.00000000      -0.00000000       1.77190000       0.12433027       0.05339890      -0.42543420
S        0.00000000       0.00000000       0.00000000       0.18613388       0.05325744      -0.04205349
N       -1.26860000      -0.00810000       2.32900000       0.65622592      -0.40574360       0.93439776
C       -1.45750000      -0.08470000       3.73330000      -0.21643983       0.15915735      -0.08025832
O       -2.58800000      -0.07770000       4.17830000      -0.21594073       0.14844711       0.33689237
C       -2.43280000       0.15090000       1.51520000       0.06204313       0.24624076      -0.59605402
C       -3.13190000      -0.96380000       1.04820000      -0.20183536      -0.29992706      -0.22487316
C       -4.26820000      -0.81400000       0.25730000      -0.48318437       0.34693021      -0.20924051
C       -4.70720000       0.47500000      -0.05930000       0.20314471      -0.05038634       0.17094350
Cl      -6.12590000       0.68080000      -1.05090000      -0.15540266       0.12269490      -0.10422751
C       -4.03280000       1.60690000       0.40460000      -0.07954417       0.07885553      -0.02693255
C       -2.89780000       1.43700000       1.19700000       0.26607335       0.41510019       0.25098708
Cl      -2.04350000       2.83000000       1.78620000      -0.05198541      -0.40893131       0.06120013
C        1.66810000      -1.22510000       7.03090000       0.10717380      -0.44024286       0.42938215
C        2.26940000      -2.13840000       6.02500000       0.18932873       0.15031818       0.28291780
N        2.13780000      -1.15340000       8.32060000       0.24336286      -0.06227171       0.10247497
C        3.33240000      -1.77130000       8.77760000       0.24538341       0.04110731      -0.33477241
C        4.56330000      -1.40680000       8.21940000       0.68275726      -0.08123623       0.23243351
C        5.73310000      -2.01530000       8.66650000      -0.16281439      -0.17784946       0.29380929
C        5.69060000      -2.97920000       9.67990000      -0.07934606      -0.17092837       0.26202381
Cl       7.16730000      -3.70920000      10.22510000      -0.25206384       0.31378806      -0.30071789
C        4.45390000      -3.34170000      10.24070000       0.17341977      -0.30839857       0.16468948
Cl       4.35550000      -4.53920000      11.49410000      -0.03202963       0.25175524      -0.27616918
C        3.27880000      -2.74280000       9.78030000       0.33821005      -0.29420775       0.10137127
H        0.89400000       0.71770000      10.90270000       0.19237883      -0.15007080       0.30318606
H        2.62440000       0.38180000      10.64420000      -0.33374569       0.08071640       0.19770756
H        1.54420000      -0.90940000      11.19890000      -0.26087749       0.54308575       0.12944037
H       -0.55150000       0.70810000       8.60810000      -0.67678785       0.37130195       0.21923199
H       -1.44560000      -0.06450000       6.18710000      -0.77930719      -0.59800953      -0.67380953
Au       2.30350000       0.10360000      -0.25990000      -0.12248088      -0.03627995       1.02321649
H       -2.76640000      -1.95720000       1.31170000       0.41751161      -0.01985319       0.48861614
H       -4.81400000      -1.68200000      -0.11250000       0.27101517      -0.74912232       0.24495026
H       -4.38470000       2.60710000       0.15560000      -0.38862234       0.61978030      -0.25943807
H        3.04320000      -1.62630000       5.43240000       0.13719554       0.00121031       0.24383849
H        1.49870000      -2.45860000       5.31010000       0.14530030      -1.25086606       0.19001414
H        2.70360000      -3.02840000       6.50440000      -0.34949452      -0.07806280      -0.85003883
H        4.59620000      -0.64400000       7.44030000       0.34265143       0.20145366      -0.10111704
H        6.69960000      -1.74210000       8.24130000      -0.25277117       0.14667699      -0.22967723
H        2.32140000      -3.04840000      10.20110000      -0.37989712       0.12550071      -0.33819193
37
Properties=species:S:1:pos:R:3:MACE_forces:R:3 Energy=2.122016571456058 MACE_energy=1.8784675598144531 pbc="F F F"
F       -4.71450000       2.34050000      -0.05670000       0.12796278      -0.27179465       0.10711369
C       -4.15420000       1.18300000       0.31250000      -0.49559686       0.32670981      -0.38120085
C       -4.71530000      -0.01490000      -0.12610000       0.07189284      -0.22498362       0.26949972
C       -4.12610000      -1.21920000       0.26540000      -0.12265812       0.02318070       0.04969342
C       -2.99310000      -1.22220000       1.08070000      -0.28926802       0.39145964      -0.18591616
C       -2.44870000      -0.00510000       1.49750000      -0.50735831      -0.38889372      -0.14938408
C       -3.02510000       1.21080000       1.12450000       0.61072910      -0.57559031       0.21462835
N       -1.27390000       0.00140000       2.33150000       0.67781746      -0.04753652       0.21162444
C       -0.00000000       0.00000000       1.76800000       0.41256341       0.05843489      -1.08953738
S        0.00000000       0.00000000       0.00000000      -0.25875375      -0.00421260       0.42944264
N        1.09950000       0.00000000       2.44220000      -0.44597518      -0.03867708      -1.02800083
C        1.09590000       0.00140000       3.83520000       0.18224923       0.03073808      -0.10812078
O        2.13940000      -0.00240000       4.45760000       0.15049127      -0.00634154      -0.26772061
C       -0.24110000       0.00890000       4.52920000      -0.07936597       0.01061797      -0.26794916
C       -0.19510000       0.01500000       5.90150000       0.37587416       0.01540732       0.27658802
C       -1.17940000       0.02360000       6.93880000      -0.86107218      -0.01906279      -0.35167405
N       -0.82270000       0.02840000       8.22820000      -0.26817614       0.00182152      -0.73536325
C       -1.99020000       0.03680000       8.92890000      -0.29979265      -0.00084565      -0.22395509
C       -2.21520000       0.04460000      10.32290000      -0.59687096       0.00243749      -0.12117922
C       -3.52660000       0.05260000      10.76810000       0.20579794       0.00039305       0.00023635
C       -4.61930000       0.05310000       9.85990000      -0.11045071       0.00052532      -0.02016545
C       -4.43260000       0.04550000       8.48410000       0.37779865      -0.00040597       0.53929085
C       -3.10460000       0.03730000       8.02720000       0.23459709       0.00767667       0.45674664
N       -2.55130000       0.02870000       6.78180000       0.46432918      -0.00865851       1.45864701
C       -1.46710000       0.00800000       3.72430000      -0.67203516       0.04835857       0.52635264
O       -2.62010000       0.01210000       4.14340000       0.35251638      -0.01914506      -0.62012762
H       -5.60040000       0.01270000      -0.76360000       0.27152884       0.18510571       0.07129316
H       -4.55660000      -2.16480000      -0.07000000       0.18476368      -0.22127351       0.02810004
H       -2.52280000      -2.15600000       1.39070000       0.14708911       0.31038606       0.11804244
H       -2.60400000       2.16150000       1.45130000       0.08636454       0.45950073       0.16413838
Au       2.30830000       0.01200000      -0.26060000      -0.32490146      -0.01986672       1.60081828
H        0.82140000       0.01320000       6.30570000      -0.00021777      -0.01256087      -0.22857809
H       -1.36890000       0.04440000      11.01180000       0.51075089      -0.00039597       0.32524461
H       -3.73430000       0.05890000      11.84040000      -0.21762273       0.00121329       0.12496903
H       -5.63620000       0.05970000      10.25930000      -0.01585343       0.00064248       0.14026980
H       -5.27680000       0.04610000       7.79230000      -0.23988464      -0.00401619      -0.44074577
H       -2.97590000       0.02540000       5.84710000       0.36073750      -0.01034804      -0.89312053
20
Properties=species:S:1:pos:R:3:MACE_forces:R:3 Energy=0.2504669647107284 MACE_energy=0.5548846125602722 pbc="F F F"
F        4.24940000      -0.80350000       5.25610000       0.00728312      -0.01510494      -0.15119338
C        3.45010000      -0.62010000       4.20480000      -0.28135726       0.05189593      -0.06335431
O        2.35020000       0.06730000       4.64950000      -0.38808218       0.14228556       0.15956631
C        1.21840000       0.06610000       3.87680000      -0.68038452       0.04335818       0.27069706
C        1.21930000       0.00000000       2.48670000      -0.58881897       0.18585542       0.40521237
C       -0.00000000       0.00000000       1.78250000       0.22566152      -0.31707203       0.46272740
S        0.00000000       0.00000000       0.00000000       0.10095675      -0.01712710      -0.42731166
C       -1.20100000       0.09960000       2.48610000       0.05071377       0.29764029       0.49178866
C       -1.21800000       0.19100000       3.88830000       0.52217311      -0.07800675       0.10915552
C        0.00080000       0.16550000       4.57840000       0.40830964      -0.21175668      -0.37955308
F        0.06600000       0.22950000       5.89970000       0.55570722      -0.09938398      -0.09739221
C       -2.56400000       0.29570000       4.53440000      -0.46682006       0.01541661      -0.03801515
O       -3.59780000       0.28490000       3.90890000       0.65212828      -0.04757370      -0.30372560
O       -2.52630000       0.40530000       5.87060000       0.27488822       0.00593288       0.05351298
F        4.13110000       0.11050000       3.28760000       0.69385177      -0.10946172       0.01922454
H        3.18160000      -1.59040000       3.74730000       0.07846850      -0.03737346       0.03044569
H        2.15930000      -0.03280000       1.93730000      -0.33775774       0.18845680      -0.44369715
Au       0.08030000      -2.24510000      -0.50910000      -0.00117520      -0.04285958      -0.00053898
H       -2.15630000       0.10980000       1.96170000      -0.03275545      -0.08195514      -0.42278489
H       -3.45120000       0.46790000       6.16510000      -0.79299062       0.12683345       0.32523602
30
Properties=species:S:1:pos:R:3:MACE_forces:R:3 Energy=1.0883750026175885 MACE_energy=1.496768593788147 pbc="F F F"
C        7.17580000      -1.46400000       6.86860000      -0.12509544       0.20291223      -0.06403045
C        5.68340000      -1.38340000       6.69690000       0.06139021       0.21119151      -0.21099195
C        4.85230000      -2.36930000       7.05380000       0.43921077       0.05953144      -0.09222910
C        5.20050000      -0.09200000       6.06800000      -0.08543829      -0.03222688       0.24139419
N        3.76660000       0.07290000       6.03560000      -0.20617741       0.25360739       0.15157288
C        3.04800000       0.02230000       4.88090000       0.61573726      -0.09008234      -0.81389844
O        3.58270000      -0.07710000       3.77730000      -0.24986622       0.14417067       0.28229904
C        1.55960000       0.09920000       4.99810000       0.00369754      -0.04025060      -1.09582877
C        0.82940000       0.18920000       6.19140000      -0.81952250      -0.15220550      -0.57196414
C       -0.57290000       0.25290000       6.17610000       0.34732109       0.01977996       0.52172196
F       -1.20360000       0.33680000       7.36030000       0.32167906      -0.04386697      -0.24479550
C       -1.32770000       0.23300000       5.01050000       0.80759144      -0.06890981      -0.12679599
C       -0.62080000       0.14090000       3.80180000       0.01343206       0.05915630      -0.32165492
N       -1.08100000       0.07880000       2.50630000       0.29829937       0.58164018       0.17213851
C        0.00000000      -0.00000000       1.75430000       0.00353572      -0.21532696       1.30326200
S        0.00000000       0.00000000       0.00000000      -0.73158920      -0.70409375      -2.93327236
N        1.16420000      -0.00000000       2.49650000      -0.12989666      -0.87952793       0.92302203
C        0.80330000       0.07840000       3.81450000       0.09878961       0.08382564       0.18459703
H        7.48500000      -2.42500000       7.30280000       0.40286297       0.08428103      -0.00791809
H        7.68940000      -1.34180000       5.89880000       0.10433772      -0.23905453       0.29242504
H        7.54430000      -0.65390000       7.52230000       0.23019466      -0.38540632       0.12977505
H        3.77320000      -2.29150000       6.90280000      -0.24236235      -0.29595876       0.17654899
H        5.22990000      -3.29460000       7.49610000      -0.29514498      -0.21935892       0.10158858
H        5.54730000      -0.03790000       5.02390000      -0.52319026       0.08911464      -0.10346772
H        5.66450000       0.76130000       6.59720000       0.06321439       0.18523796       0.01819313
H        3.27740000       0.12010000       6.91900000      -0.69990915       0.22093861       0.06748144
H        1.31010000       0.21250000       7.17070000       0.40690130       0.01033038      -0.27531642
H       -2.41600000       0.28350000       5.04180000      -0.78759402       0.10107861       0.89823365
Au       0.92230000      -2.06520000      -0.46350000       0.14664209       0.89786196       0.27515179
H        2.13050000      -0.04430000       2.18600000       0.53094912       0.16161051       1.12275863
41
Properties=species:S:1:pos:R:3:MACE_forces:R:3 Energy=0.5316791766390302 MACE_energy=0.5636824369430542 pbc="F F F"
C        4.24640000       1.93080000       5.84240000       0.22831970       0.43058658      -0.50447017
N        4.35370000       0.68370000       6.58990000      -0.82321954      -0.74767506       0.41899955
C        5.66090000       0.47770000       7.25500000      -0.12726548       0.02499285       0.39913806
C        5.70500000       1.11600000       8.63840000       0.39951891       0.07843405      -1.08242249
C        5.13870000       0.51750000       9.77560000      -0.00790204       0.05184923       0.45383286
C        5.20400000       1.13650000      11.02520000      -0.06328087      -0.03713638       0.05380005
C        5.84130000       2.37310000      11.16690000       0.06179540       0.02271074       0.29829359
C        6.41020000       2.99270000      10.05350000      -0.06119818       0.09838413       0.30620199
C        6.32820000       2.35550000       8.81890000      -0.10973553      -0.57572621      -0.44096392
F        6.87770000       2.97590000       7.74920000       0.36958063       0.40644458       0.33939731
C        6.13720000      -0.97620000       7.22880000       0.21892077      -0.06660957       0.22551960
C        3.27820000      -0.10460000       6.90260000       0.75568140      -0.14443853       0.84585798
O        3.28130000      -0.91550000       7.82120000       0.27888772       0.00465924      -0.57032979
C        2.04870000       0.00200000       6.03480000       0.18171915       0.01198528       0.10900472
C        0.78930000      -0.03460000       6.67070000      -0.55482292       0.17552392      -0.20980051
C       -0.37020000      -0.02210000       5.91210000       0.19903934       0.20268354      -0.08412158
C       -0.29550000      -0.00430000       4.50950000       0.27526656       0.12257367      -0.42620811
C        0.96210000       0.00040000       3.85640000      -0.53098071       0.06612843      -0.30906153
C        2.13000000       0.00940000       4.64540000      -0.43953952      -0.39247733       0.16744502
N        1.08420000      -0.00000000       2.47820000      -0.96172267       0.06956360       0.19853804
C        0.00000000      -0.00000000       1.77070000      -0.06741716       0.06502979      -0.44556463
N       -1.26040000       0.00160000       2.32240000       0.47084662      -0.00876118       0.96525699
C       -1.52330000      -0.00000000       3.70260000      -0.13263720      -0.05418072      -0.24301210
O       -2.66550000       0.00160000       4.11620000      -0.03579068      -0.01603271      -0.02460609
S        0.00000000       0.00000000       0.00000000      -0.40477818      -0.02141883      -0.24829233
H        3.19870000       2.18600000       5.65410000       0.40901768      -0.56650603       0.58508056
H        4.69900000       2.74870000       6.42430000      -0.04336328       0.42945820      -0.03200227
H        4.77370000       1.87330000       4.87440000       0.16350397       0.10748622      -0.03756923
H        6.36400000       1.04510000       6.63150000      -0.48041552      -0.17409280       0.39146852
H        4.62040000      -0.43320000       9.65570000       0.05213101       0.31123242       0.18680145
H        4.75250000       0.65100000      11.89300000      -0.10201872      -0.13177556      -0.11644126
H        5.89540000       2.85930000      12.14370000      -0.13428262       0.07797238       0.24064516
H        6.91490000       3.95800000      10.12050000       0.03292027      -0.02758814      -0.57445741
H        6.11280000      -1.35670000       6.19580000      -0.23538452       0.11983517      -0.22032884
H        5.51460000      -1.62990000       7.84850000      -0.33072293       0.19100390      -0.69225729
H        7.17570000      -1.02030000       7.58960000       0.11632561       0.21386310       0.06971130
H        0.75190000      -0.08020000       7.75990000       0.04196662       0.14977680       0.02063823
H       -1.35870000      -0.03440000       6.37480000       0.20989421      -0.19309312       0.51549280
H        3.09270000       0.00830000       4.13320000       0.60351646      -0.26585871      -0.13534446
H       -2.08200000       0.00070000       1.72360000       0.38584834      -0.02263192      -0.63483053
Au       2.28950000      -0.03250000      -0.32670000       0.19177802       0.01382509       0.24096102
21
Properties=species:S:1:pos:R:3:MACE_forces:R:3 Energy=3.3805530797753094 MACE_energy=3.448164701461792 pbc="F F F"
F        3.25830000      -0.00160000       9.69690000       0.44206929       0.00006395      -0.09921756
C        2.17470000      -0.00140000       8.90640000      -0.34145635       0.00008141      -0.29963723
C        0.90840000      -0.00170000       9.48710000      -0.16418719       0.00003932      -0.08035000
C       -0.20680000      -0.00150000       8.64450000       0.23725261       0.00002655      -0.05667102
C       -0.06770000      -0.00100000       7.25700000       0.30915549      -0.00004798       0.09520486
C        1.21860000      -0.00070000       6.67440000      -1.20561361      -0.00011827      -0.01570269
C        1.51340000      -0.00030000       5.24400000      -0.21676885       0.00002480      -0.23535851
C        0.76410000      -0.00020000       4.10890000       0.34406886      -0.00020577       0.79018062
S        1.59010000      -0.00000000       2.52990000       0.29821852      -0.00001922       1.85966134
C        0.00000000       0.00000000       1.73850000      -0.89370000       0.00000264      -0.37993905
S        0.00000000       0.00000000       0.00000000      -0.70733905       0.00002884      -2.28854179
N       -1.04020000      -0.00010000       2.50360000       0.63152623       0.00013739      -1.82858658
C       -0.73010000      -0.00010000       3.86970000       0.34069547      -0.00002684      -0.26112241
O       -1.58170000      -0.00010000       4.73400000      -0.19563557       0.00002296      -0.35448641
C        2.34540000      -0.00090000       7.53000000       0.03644663      -0.00015897       0.39262274
H        0.81510000      -0.00210000      10.57450000      -0.37890798       0.00004260      -0.22601989
H       -1.20800000      -0.00180000       9.08120000       0.28973636      -0.00004008       0.17826235
H       -0.94090000      -0.00090000       6.60940000      -0.00226732       0.00002162       0.30631834
H        2.59340000      -0.00020000       5.05730000       0.56679147       0.00016617       0.36167485
Au      -2.30150000      -0.00010000      -0.29940000       0.34409714      -0.00001930       2.16108155
H        3.35990000      -0.00070000       7.12720000       0.26581788      -0.00002182      -0.01937357
43
Properties=species:S:1:pos:R:3:MACE_forces:R:3 Energy=0.36918266192797033 MACE_energy=0.11788523197174072 pbc="F F F"
S        0.00000000       0.00000000       0.00000000       0.37655982       0.10466801       0.44091764
C        0.00000000       0.00000000       1.78180000      -0.15270253       0.02785041      -0.70416307
N       -1.09480000      -0.00830000       2.46320000      -0.32335085      -0.02850467      -1.08782387
C       -1.08690000       0.01450000       3.87100000       0.08225827      -0.04347884       0.17484392
O       -2.12840000       0.03480000       4.50880000      -0.00472289       0.03447361      -0.60261089
C        0.22830000       0.04330000       4.50610000       0.38930836      -0.38752285       0.20527121
C        0.32060000       0.20420000       5.99790000       0.04508445      -0.18264067      -0.38551196
N        1.67370000       0.57610000       6.38800000       0.45880526      -0.78208858      -1.20045495
C        2.63800000      -0.28460000       5.73680000       0.02839147       0.11109003       0.19467816
N        2.62430000      -0.10480000       4.29080000      -1.58187938      -0.22113207       0.67662895
C        1.35920000       0.00410000       3.74530000       1.19415975       0.08495162       0.69548535
N        1.26530000       0.00000000       2.35000000      -0.91389585       0.02615468       0.49620032
C        2.45390000      -0.02840000       1.54650000       0.28479341      -0.07618383       0.19650018
C        3.08570000      -1.24600000       1.27830000      -0.09763168       0.10180405      -0.01682505
C        4.24450000      -1.25640000       0.50170000       0.01280237       0.32921734       0.00721897
C        4.77410000      -0.06580000      -0.00280000      -0.14906345       0.19625533      -0.10411343
C        4.13280000       1.14330000       0.28070000       0.13839628       0.04051189      -0.01103628
Cl       4.78590000       2.63590000      -0.34200000      -0.01440525       0.25044075      -0.07051859
C        2.97300000       1.17470000       1.05810000       0.24778752      -0.20791042      -0.05701163
C        1.85430000       0.79050000       7.81500000       0.18829291       0.01951542      -0.77632916
C        2.00430000      -0.44370000       8.73580000       0.25765708      -0.09773102       0.31861717
C        2.49260000       0.18410000      10.04290000      -0.52204514      -0.38747650       0.40428245
C        3.53160000       1.23060000       9.58280000       0.48980281       0.36837733       0.16005939
C        3.07550000       1.67770000       8.17000000       0.66422516       0.41532019      -0.14213948
Au      -2.31360000      -0.00580000      -0.21150000       0.13895252       0.01276990       1.28267717
H       -0.03380000      -0.72630000       6.49810000      -0.74144244      -0.43546283      -0.31020689
H       -0.38410000       0.99400000       6.30420000       0.41327915      -0.13191664       0.10609312
H        3.65080000      -0.06900000       6.10120000      -0.08222221      -0.20096381      -0.07321838
H        2.43610000      -1.36040000       5.93160000      -0.38353309       0.58451271       0.09479573
H        3.30820000       0.55300000       3.92510000       0.48143852       0.48877448       0.08875585
H        2.66070000      -2.16750000       1.67690000       0.07168690      -0.03433076       0.07196175
H        4.74360000      -2.20240000       0.28200000      -0.07569964      -0.11588228       0.02581859
H        5.67780000      -0.06670000      -0.61350000       0.18715271      -0.52268159       0.07917555
H        2.46740000       2.11710000       1.26830000      -0.64599264      -0.10907330       0.18482523
H        0.94910000       1.32420000       8.14930000       0.16896185       0.24791564      -0.23947206
H        2.77570000      -1.12670000       8.33860000      -0.27930945       0.50356710      -1.17787647
H        1.07320000      -1.02070000       8.84140000      -0.27072337       0.46889004      -0.21240307
H        1.64730000       0.68530000      10.54490000       0.05686247      -0.28850025       0.58404458
H        2.90430000      -0.54590000      10.75620000       0.24462453       0.04739280       0.31469363
H        3.61450000       2.07100000      10.28800000      -0.01913495      -0.14756127      -0.02365763
H        4.52870000       0.76440000       9.53040000      -0.15563884       0.09018838       0.14933534
H        2.80400000       2.74230000       8.12330000      -0.21004538      -0.35097539       0.28335401
H        3.87990000       1.53440000       7.43240000       0.00215600       0.19737555      -0.04086146
22
Properties=species:S:1:pos:R:3:MACE_forces:R:3 Energy=0.3550844905847789 MACE_energy=0.2014729380607605 pbc="F F F"
C       -0.45210000       0.80650000       6.72440000       0.02948515       0.21793343       0.28476438
O        0.03630000      -0.29550000       5.95050000       0.41238114      -0.21207225      -0.14751197
C        0.01110000      -0.16430000       4.60400000      -0.56768054       0.07283163       0.40663779
C       -1.19810000      -0.17340000       3.88390000       0.10013135       0.15993717       0.16144219
O       -2.39160000      -0.23520000       4.57150000       0.04984301      -0.12331951       0.18522812
C       -2.71480000      -1.45570000       5.12800000       0.15436809       0.38194454      -0.11148041
F       -3.62120000      -1.21560000       6.08140000       0.32119367      -0.28230327      -0.20305376
F       -3.28260000      -2.24710000       4.19270000       0.04253563       0.10545488       0.18920389
C       -1.20750000      -0.09730000       2.49580000       0.33508661      -0.10066733      -0.05282325
C       -0.00000000      -0.00000000       1.78270000      -0.07491973       0.34623474       0.52227765