17
Properties=species:S:1:pos:R:3:MACE_forces:R:3 Energy=0.0932393017589173 MACE_energy=-0.7682467103004456 pbc="F F F"
Au       2.13410000       0.83920000      -0.30000000       0.07542046       0.06951490       0.10385188
S        0.00000000       0.00000000       0.00000000      -0.24722545      -0.04937328      -0.16480711
C        0.00000000       0.00000000       1.74850000       0.51772052      -0.08231936       0.51180905
N       -1.11850000       0.00250000       2.51650000       0.67157578      -0.38602221       0.02674571
N        1.04480000       0.00000000       2.56990000      -1.72800934       0.07879212      -0.16209234
N       -0.73710000      -0.01320000       3.81590000       0.39703411      -0.03618573      -0.18768412
N        0.54730000      -0.00610000       3.82190000       0.08462147       0.20813903      -0.12929615
C       -2.52780000       0.03010000       2.16430000       0.03090171      -0.09388243       0.27910328
H       -2.58970000       0.22160000       1.08520000       0.09454247      -0.23064029      -0.25314090
H       -2.98910000       0.87140000       2.70050000       0.07205884       0.23873132      -0.06802724
C       -3.23030000      -1.27090000       2.52990000       0.60205323       0.32120794      -0.00258823
C       -2.77570000      -2.42970000       1.67100000       0.03583661       0.13317119      -0.63768351
H       -4.32040000      -1.16160000       2.40270000      -0.24029371      -0.12879655      -0.11433561
H       -3.06370000      -1.51670000       3.58980000      -0.09385300      -0.42236120      -0.05265482
O       -2.08830000      -2.32950000       0.68480000      -0.38225573       0.02828705       0.90660739
O       -3.24330000      -3.60270000       2.12590000       0.04873562       0.35742605       0.02669162
H       -2.91910000      -4.29350000       1.52190000       0.06113650      -0.00568857      -0.08249879
38
Properties=species:S:1:pos:R:3:MACE_forces:R:3 Energy=0.32666155485403975 MACE_energy=0.5584378242492676 pbc="F F F"
Au       1.11590000      -1.94450000      -0.49990000       0.21018523       0.00889783      -0.16462989
S        0.00000000       0.00000000       0.00000000       0.01007689       0.08891766      -0.24609104
C        0.00000000       0.00000000       1.83020000       0.03935000       0.28585070      -0.97310847
H       -0.58190000      -0.83870000       2.23010000       0.47205389       0.97787762       0.41235840
C        1.38710000      -0.00000000       2.47610000       0.39723754       1.24348497       1.31038153
H       -0.55850000       0.91790000       2.08110000      -0.40175021      -0.78004116       0.27549881
H        1.85250000      -0.96310000       2.20240000      -0.18198912      -1.47077107       0.07659838
C        2.32570000       1.11540000       2.00440000      -0.30601582       0.11812149      -0.16667014
C        1.25850000      -0.05850000       3.99940000      -0.67762518      -0.26097924       0.56522727
O        0.39770000      -0.71500000       4.55490000       0.21035747       0.14274460      -0.35407794
N        2.20420000       0.63910000       4.70520000      -0.80216396       0.45443892      -0.36810163
H        2.49020000       1.00330000       0.92410000      -0.02091344      -0.18424137       0.10053112
C        3.67200000       1.06180000       2.79080000       0.05009739       0.18938971      -0.04875052
C        1.79320000       2.52190000       2.34180000       0.92253965       0.28468347      -0.45785916
H        0.70330000       2.63730000       2.29520000      -1.16468334      -0.37767041      -0.28735590
C        3.18730000       1.59940000       4.16620000      -0.29552251      -0.47594103      -0.08469012
C        2.32440000       2.81450000       3.75910000       0.42877704       0.34287161      -0.33136413
H        2.08770000       0.62620000       5.71450000       1.37130296       0.13619305       0.01544881
O        2.10200000       3.78720000       4.42420000       0.32661414      -0.24300304       0.07316323
C        4.17660000       1.92660000       5.23820000       0.26785049      -0.35921323      -0.17037416
C        4.22800000      -0.33390000       2.83800000      -0.03018462       0.56361222      -0.33688894
C        2.37520000       3.57790000       1.42260000       0.19010560       0.17060284      -0.12242074
C        4.73690000       1.95490000       2.06260000      -0.54754382       0.57391608       0.78400266
H        5.04890000       1.33710000       1.20500000       0.06808947      -0.23625427      -1.01450133
S        4.15640000       3.51690000       1.22300000      -0.34834799      -1.09247136       1.07380128
H        4.12830000      -0.88300000       1.89490000       0.20721820      -0.41472471       0.04016101
O        1.74150000       4.43710000       0.87630000       0.08060430      -0.21093413      -0.09499637
C        4.98580000       1.04580000       5.83830000       0.16727595       0.18064493       0.15443222
C        5.97440000       2.21830000       2.88120000      -0.10191138       0.30158398       0.52136511
H        6.44770000       1.30370000       3.25280000      -0.22876480      -0.12494265       0.44890833
C        6.53650000       3.39700000       3.15370000      -0.59024680      -0.13532178       0.29147491
H        6.10510000       4.34090000       2.81270000       0.59732169       0.04077423       0.36616024
H        4.16500000       2.95930000       5.59470000      -0.37378323      -0.14921829      -0.11199458
H        5.60360000       1.36390000       6.68390000       0.39285010       0.07581630      -0.09866560
C        4.83220000      -1.00560000       3.83020000       0.65183342      -0.03235498      -0.03483678
H        5.14860000      -2.03470000       3.62790000      -0.29521185       0.13447776      -0.16040769
S        5.29080000      -0.64620000       5.48470000      -0.41908252       0.31694928      -0.43844348
H        7.45260000       3.44730000       3.74730000      -0.27600095      -0.08376608      -0.44328529
31
Properties=species:S:1:pos:R:3:MACE_forces:R:3 Energy=3.833322836678035 MACE_energy=2.880941390991211 pbc="F F F"
Au       1.52090000       1.65050000      -0.54200000       0.00283895      -0.03722242       0.36624497
S        0.00000000       0.00000000       0.00000000      -0.67677963      -0.19038250       0.25609607
C       -0.00000000       0.00000000       1.77400000       0.03056694       0.05458977       0.00342174
C        1.19800000       0.00000000       2.51460000       0.33653492       0.31690460      -0.45091397
C       -1.19620000      -0.05240000       2.53210000       0.07179606      -0.05343745      -0.03363523
C       -2.51600000      -0.16490000       1.85630000       0.16026725      -0.16753849      -0.05553583
C       -1.17570000      -0.06020000       3.93580000      -0.42488143      -0.18371576       0.59097463
C        0.03150000      -0.03910000       4.63450000      -0.31978786      -0.14659265      -0.03508128
H       -2.12650000      -0.08190000       4.46130000       0.89144152      -0.07773448      -0.04385233
F        2.36490000       0.01800000       1.86850000      -0.02485600       0.01283693       0.29645750
O       -2.71140000      -0.60550000       0.75790000      -0.99635577       0.08311366       0.55941683
O       -3.52180000       0.32470000       2.66370000       0.36434335       0.36167511      -0.62464261
C        1.24120000      -0.01640000       3.90600000      -0.06695972       0.12298203       0.25412661
O        0.13880000      -0.01500000       5.97270000       0.49848515      -0.02844337       0.40135741
C        2.56990000       0.01670000       4.58980000      -0.09649089       0.18636347      -0.11208816
O        3.38400000       0.87330000       4.49560000      -0.10349119       0.30658397      -0.08224681
C       -1.03420000      -0.07770000       6.76420000       0.48679397      -0.08095694      -0.02141403
S       -5.05430000      -0.40750000       2.79160000      -0.05530128       0.19458462       0.00499058
H       -1.60200000      -1.00250000       6.56660000      -0.06042375       0.51443976      -0.02308309
Cl       2.87430000      -1.46040000       5.56550000      -0.33589107      -0.41848159       0.29796082
H       -1.68690000       0.79350000       6.58580000       0.12385929      -0.51585114      -0.31403017
H       -0.69890000      -0.07360000       7.80840000      -0.06036787       0.02922401      -0.44873935
C       -6.00120000       0.43760000       1.50610000      -0.01093222       0.41691867       0.96495259
O       -4.90200000      -1.82260000       2.49470000       0.03662930      -0.07312700      -0.06694815
C       -5.81210000      -0.13860000       0.11390000      -0.16409321      -0.38933948      -0.38119259
H       -4.76530000      -0.07350000      -0.20850000       0.23437645       0.05343423      -0.59933513
O       -5.49900000       0.06500000       4.09110000       0.14410256       0.20358650      -0.54900193
H       -6.44460000       0.42100000      -0.59180000       0.05298708       0.03000158      -0.23750578
H       -6.10960000      -1.19620000       0.09160000      -0.03116293      -0.30515522      -0.52398497
H       -5.71060000       1.49380000       1.60320000      -0.15926681      -0.18625277       0.28803906
H       -7.03280000       0.33300000       1.87770000       0.15201861      -0.03300745       0.31919298
19
Properties=species:S:1:pos:R:3:MACE_forces:R:3 Energy=2.253008792777525 MACE_energy=-0.3616693913936615 pbc="F F F"
Au       0.37300000      -2.23130000      -0.44970000       0.22297099       0.25702262       0.15895301
S        0.00000000       0.00000000       0.00000000      -0.18189441      -0.01225929       0.27297646
C       -0.00000000       0.00000000       1.77400000       0.07993260      -0.19842625      -0.16704378
C       -1.16760000       0.08330000       2.56240000      -0.22529179       0.02407213       0.50954866
C        1.23360000       0.00000000       2.42730000      -0.41426605      -0.01418022       0.05398794
C       -2.53180000       0.03530000       1.90830000       0.42353243      -0.00838285      -0.53257477
F       -2.68820000      -1.12630000       1.21790000      -0.40236339       0.08216982      -0.23386419
C       -1.07050000       0.18270000       3.95570000      -0.23655251       0.00239968       0.04848185
F       -2.69480000       1.06630000       1.04280000      -0.12515648      -0.20022975      -0.15963882
H       -3.34670000       0.08740000       2.64270000       0.17583236       0.10253195      -0.05116080
F        2.37430000      -0.11160000       1.78720000       0.63876069      -0.07062367       0.31380838
N        0.15630000       0.17930000       4.56610000      -0.11912010       0.06209770       1.07972491
C       -2.17850000       0.30530000       4.95750000       1.06874323      -0.09905214       0.35874641
N        1.37270000       0.06380000       3.77330000       0.37468529      -0.11088420      -0.09943636
O        2.42920000       0.04760000       4.39270000      -0.22552694       0.10117082      -0.53013825
H       -3.16950000       0.33680000       4.49640000      -0.90085262       0.12499108       0.38462818
O        0.34290000       0.25690000       5.77830000      -0.15030491      -0.07625302      -1.20280063
H       -2.03120000       1.21670000       5.55760000      -0.01419501      -0.28300464      -0.10345766
H       -2.13430000      -0.53610000       5.66680000       0.01106676       0.31684011      -0.10074062
35
Properties=species:S:1:pos:R:3:MACE_forces:R:3 Energy=2.7519740670728927 MACE_energy=2.267177104949951 pbc="F F F"
Au       0.46260000       2.20280000      -0.51380000       0.22228268      -0.14191979       0.36917737
S        0.00000000       0.00000000       0.00000000       0.02121323      -0.39675987       0.36632979
C        0.00000000       0.00000000       1.77910000      -0.47259495      -0.28454769       0.05903025
C        1.16740000       0.00000000       2.57560000      -0.35311449       0.22200526      -0.51622838
C       -1.23040000      -0.14730000       2.43530000       0.26975134       0.18316779      -0.58238125
H       -2.14570000      -0.14750000       1.84260000       0.15512668       0.02763737      -0.02594269
C       -1.32920000      -0.32030000       3.82100000       0.63366866       0.26253775       0.08960760
C        2.53600000       0.23750000       2.01940000       0.43080238       0.34881222      -0.33199602
C        1.08170000      -0.14350000       3.96400000      -0.01609318       0.02781486       0.53301454
C       -0.15450000      -0.28620000       4.61300000       0.36627281      -0.10440060      -0.42932636
O       -0.27660000      -0.35000000       5.94170000      -0.72717875      -0.18114370       0.57543969
H        1.99940000      -0.12560000       4.54600000      -0.44585782      -0.06168541      -0.54488587
O        2.84900000       1.07070000       1.20780000       0.21408938       0.28390157       0.29744717
C       -2.70840000      -0.49200000       4.35280000      -0.19208008      -0.06312720       0.06856647
O        3.43800000      -0.56940000       2.62600000      -0.12190650      -0.52461004       0.29974285
O       -3.67680000       0.06140000       3.93990000      -0.59986365       0.64928114      -0.03080906
C        4.81810000      -0.25250000       2.47990000       0.20263666      -0.01118583       0.04561300
Cl      -2.88000000      -1.77140000       5.61400000       0.54524720      -0.43495047       0.33128291
C        0.89070000      -0.32620000       6.77140000      -0.42654216      -0.12079454       0.14922082
H        1.55410000      -1.16470000       6.49580000       0.31085825       0.74154735      -0.22033900
H        1.45010000       0.60820000       6.59740000       0.06466915      -0.67708147      -0.21134755
C        0.44540000      -0.43910000       8.21690000      -0.06201334       0.00782621      -0.20434739
C       -0.25650000      -1.75660000       8.54030000      -0.35468036      -0.07415736       0.01225784
H       -0.21660000       0.41330000       8.44590000      -0.14292881       0.26789543       0.15266997
H        1.34550000      -0.31510000       8.84260000       0.09706049       0.23457322       0.06662433
H        5.21980000      -0.70610000       1.56010000      -0.21429804       0.23352653      -0.31847507
H        4.94300000       0.83780000       2.40450000      -0.08341026       0.04503449      -0.21660298
C        5.52650000      -0.82460000       3.70890000      -0.32313746      -0.26609924      -0.00123212
C        4.90400000      -0.35550000       4.94970000      -0.21045746       0.11417457       0.45744172
H        5.47700000      -1.92540000       3.69660000       0.23748219      -0.09903670       0.25024557
H       -1.15920000      -1.87870000       7.92460000       0.63759065       0.22948474       0.04207982
N        4.35050000       0.01330000       5.89790000       0.18210614      -0.04181311      -0.40389669
H        6.59120000      -0.54200000       3.69650000       0.30866703       0.13886964      -0.12502083
H        0.40500000      -2.61680000       8.34350000      -0.01287177      -0.37613422      -0.00222197
H       -0.55410000      -1.79760000       9.59940000      -0.14049566      -0.15864308      -0.00073849
24
Properties=species:S:1:pos:R:3:MACE_forces:R:3 Energy=1.798109050868122 MACE_energy=1.32085382938385 pbc="F F F"
Au       2.30610000       0.00040000      -0.26250000       0.12846297      -0.03172566       0.24792041
S        0.00000000       0.00000000       0.00000000      -0.29436454      -0.16193467      -1.07902181
C        0.00000000       0.00000000       1.76490000       0.18151838      -0.04187197       0.52255201
N        1.09290000      -0.00000000       2.44690000      -0.58921838       0.00978794       0.58224684
N       -1.26900000      -0.00270000       2.33730000       0.49062854       0.07561264      -0.17464921
C        1.09050000       0.00450000       3.84170000      -0.22380856      -0.18803047       0.36354399
C       -2.43150000      -0.09200000       1.54320000       0.27041906       0.52063298      -0.05068105
O        2.13550000      -0.16750000       4.44390000      -0.29810461       0.28484324      -0.92842758
C       -0.21590000       0.24370000       4.53570000       0.06511419      -0.25854889      -0.53399992
C       -1.45660000       0.12260000       3.74620000      -0.16264205       0.00665391       0.42374170
O       -2.59380000       0.13000000       4.17000000       0.07293792       0.16336587      -0.15228105
C       -0.27940000       0.56290000       5.87400000      -0.02253980       0.21304068       0.97121841
C       -2.96150000      -1.25970000       1.16290000       0.06532932      -0.65028960       0.26758796
I       -3.37200000       1.73410000       0.98980000      -0.03826539      -0.08721201      -0.18836507
Cl      -2.25670000      -2.77320000       1.60530000       0.23151766      -0.12543240      -0.09902446
H       -3.85650000      -1.32880000       0.54470000      -0.11755404       0.39762512      -0.20174994
C        0.95390000       0.71210000       6.71650000       0.10808703      -0.00493949       0.05336030
H        1.37750000      -0.28310000       6.93370000       0.32182702       0.18987559      -0.36850470
H        0.71880000       1.21170000       7.66590000      -0.11388567       0.08001417       0.30218294
H        1.75890000       1.23920000       6.18850000       0.15703946      -0.38406923      -0.09184328
C       -1.58370000       0.77520000       6.59060000       0.23622353      -0.10997853       0.19096965
H       -2.18460000      -0.14740000       6.58290000      -0.19852808       0.21045595      -0.23270085
H       -1.41420000       1.09240000       7.62760000      -0.00254729       0.15552762       0.30119383
H       -2.21480000       1.51360000       6.07390000      -0.26764685      -0.26340279      -0.12526920
40
Properties=species:S:1:pos:R:3:MACE_forces:R:3 Energy=2.2109878242736793 MACE_energy=2.0077576637268066 pbc="F F F"
Au       1.98680000       1.32570000       0.11980000      -0.20772880      -0.28535429      -1.05014169
S        0.00000000       0.00000000       0.00000000      -0.19397783       0.34809938      -0.71102560
C       -0.00000000      -0.00000000       1.74600000       0.50084257       0.20515248       0.24289094
N        1.09280000       0.00000000       2.46280000      -0.27377328       0.50498831       1.56120515
N       -1.12630000       0.27680000       2.54240000       0.30687019      -0.50447607       1.17112529
C        0.77800000       0.53630000       3.69510000       0.80772090      -0.37078059      -1.22307873
C       -0.69340000       0.56310000       3.84030000      -0.51604772      -0.04387864       0.02452976
C       -1.51220000       0.86170000       4.89340000       0.54412842      -0.03109961      -0.53560090
C       -2.48610000       0.25110000       2.11690000       0.26231176      -0.20703289      -0.09695324
C       -2.95140000       1.24920000       1.25610000       0.09214285       0.10759240      -0.21176441
H       -2.57330000       1.00590000       4.68670000      -0.38105056       0.42720512       0.41549602
C       -1.05720000       0.92470000       6.27490000       0.69178593      -0.25821599       0.14499092
O        0.02900000       0.54740000       6.68310000      -0.04622374       0.64688510      -0.36183465
C       -3.33560000      -0.76320000       2.57140000      -0.11881176      -0.38990000       0.19374025
C        1.76680000       1.28550000       4.26970000       0.16702580       0.57072723       0.10550115
H       -2.94640000      -1.53500000       3.23720000      -0.04516002      -0.05269678      -0.12416814
S        3.34220000       1.34650000       3.26760000      -1.23496616       0.18954431       1.05000985
C       -2.05270000       1.43890000       7.29110000      -0.36286783      -0.23582222       0.23874781
C       -3.40010000       1.03850000       7.31830000       0.29656410       0.37856233       0.46667898
H       -3.80210000       0.39070000       6.53380000      -0.05236243      -0.09376849      -0.00801187
C       -4.66950000      -0.77120000       2.16000000      -0.01971325      -0.15482785       0.03425750
N        1.79360000       2.15140000       5.30910000       0.36988127      -0.28246844      -0.60041684
C       -5.15190000       0.21250000       1.29390000      -0.19781087       0.03627563      -0.25226122
H       -2.28050000       2.03220000       0.90600000       0.15979242       0.41826120      -0.21847591
C        2.93740000       2.72610000       5.39920000      -0.31767401       0.05700178       0.17456660
C       -1.67020000       2.23060000       8.36620000       0.12448764       0.25561661       0.10190954
N       -0.31880000       2.80860000       8.47860000       0.17653579      -0.16973090      -0.26799649
O        3.92670000       2.41240000       4.52970000      -0.04686111      -0.09088765      -0.10351885
O        3.09330000       2.23040000       2.06040000       0.01840084      -0.31073946       0.36236259
O        0.23520000       2.68800000       9.55570000       0.03652962       0.06078481      -0.76893735
C       -4.28560000       1.21420000       0.84550000       0.01977866       0.01466334       0.10388339
C       -2.60670000       2.54240000       9.35280000      -0.58752656      -0.30543208       0.00395221
Cl      -4.87700000       2.44600000      -0.23570000      -0.14638795       0.31539565      -0.28660789
H       -6.19080000       0.20930000       0.96230000       0.04907968      -0.06054863       0.17808944
O        0.10100000       3.41090000       7.50950000       0.40217417      -0.28293923       0.33161238
N       -4.26420000       1.37210000       8.27610000      -0.00618537       0.03083007      -0.06919685
N       -3.87050000       2.12670000       9.28900000      -0.28532708      -0.14339896      -0.16066654
H       -2.32960000       3.15570000      10.21400000      -0.09699573       0.08869890       0.17043544
H        3.19750000       3.47930000       6.14810000       0.10385365      -0.28450412      -0.09976023
H       -5.34140000      -1.55810000       2.50890000       0.00754590      -0.09778156       0.07443201
19
Properties=species:S:1:pos:R:3:MACE_forces:R:3 Energy=0.2735529685423197 MACE_energy=-0.24739670753479004 pbc="F F F"
Au       1.13550000      -1.92930000      -0.51630000      -0.01948893       0.05437377       0.04058279
S        0.00000000       0.00000000       0.00000000       0.15336716       0.09390938       0.66479182
C        0.00000000       0.00000000       1.85150000      -0.37675244      -0.10371745      -0.41129678
C        1.36770000       0.00000000       2.47500000       0.05334286      -0.03248602      -0.22328654
C        2.05330000       1.21530000       2.63140000       0.01757239      -0.42685610      -0.14023677
C        2.04130000      -1.18510000       2.84100000       0.08644415       0.34165859       0.03134273
C        1.42800000      -2.53070000       2.69870000       0.18122694       0.01740711       0.21923234
C        3.35180000      -1.13570000       3.34350000      -0.00345840       0.19019431       0.11200303
H        0.35090000      -2.55210000       2.40920000       0.20296593       0.16841450      -0.11203483
H       -0.51860000       0.94470000       2.08170000       0.19455244      -0.36943406       0.16250591
H       -0.63900000      -0.81320000       2.21610000      -0.03836790       0.16338347      -0.10403561
O        2.02570000      -3.56980000       2.88540000      -0.46195835      -0.38894626      -0.17755470
C        4.00990000       0.08240000       3.49840000       0.16111642       0.12259586      -0.00885514
C        3.34650000       1.26810000       3.13800000       0.20347297      -0.16443159       0.13883746
H        3.83200000      -2.08240000       3.60630000       0.18340349       0.16251636       0.06080146
H        3.86810000       2.21910000       3.26110000      -0.22545724       0.19870205      -0.08422868
O        5.27090000       0.18680000       3.98360000      -0.52151030       0.47762722      -0.34896564
H        5.61010000      -0.69420000       4.19070000       0.17805479      -0.70067012       0.24531743
H        1.55820000       2.14400000       2.33690000       0.03147392       0.19575892      -0.06492019
26
Properties=species:S:1:pos:R:3:MACE_forces:R:3 Energy=0.189841541330705 MACE_energy=-1.1633596420288086 pbc="F F F"
Au       0.93100000      -2.05360000      -0.50450000       0.24520203       0.20587695       0.35315275
S        0.00000000       0.00000000       0.00000000      -0.53341645       0.07087196       0.48151171
C        0.00000000      -0.00000000       1.77750000      -0.11437953      -0.07490501       0.41830659
C        1.16590000      -0.00000000       2.57800000      -0.41515374      -0.06043259      -0.32947627
Br       2.87220000      -0.14350000       1.76390000      -0.71452701      -0.04407158      -0.28114438
C       -1.26180000       0.09560000       2.39090000       0.34793180      -0.03095952      -0.35850033
C        1.04960000       0.08860000       3.97830000      -0.58838904       0.03485611      -0.14040220
H       -2.15600000       0.07800000       1.77360000       0.95649064       0.03305058      -0.17041805
C       -1.37110000       0.21050000       3.77920000       0.33728558      -0.10032538      -0.15566669
C       -0.21020000       0.20060000       4.56350000       0.57702285      -0.14100972      -0.34861404
N       -2.60320000       0.32410000       4.44770000       0.16903540       0.04773898       0.12424557
H       -0.28300000       0.27730000       5.64850000      -0.44755331       0.15205151       0.23672664
C        2.25810000       0.07620000       4.89910000       0.00594077      -0.05735945       0.06195255
F        2.95850000      -1.06130000       4.78620000       0.07928924      -0.05917549      -0.01655267
F        3.08870000       1.09750000       4.65020000       0.04725853       0.00525653      -0.05504247
C       -3.84940000       0.35000000       3.90190000       1.14488184      -0.36364037      -0.50798696
H       -2.55860000       0.39390000       5.45870000       0.18100166       0.02556655       0.02071092
F        1.88590000       0.17970000       6.18940000      -0.16997729       0.02507440       0.28615147
O       -4.14140000       0.27290000       2.72930000       0.11476678       0.01880808      -0.64080030
C       -4.98090000       0.48700000       4.95400000      -0.70252490       0.18567321       0.36895144
F       -5.79560000      -0.57760000       4.86600000      -0.02518360      -0.18692812       0.09065312
C       -5.81690000       1.77380000       4.75250000      -0.20956737      -0.05495396       0.08759041
F       -4.47520000       0.53280000       6.21960000      -0.05234713       0.06638002       0.12641513
F       -4.98690000       2.82470000       4.70490000       0.11758912      -0.01149249      -0.03622482
F       -6.51480000       1.71900000       3.62740000      -0.13936169       0.04422259       0.02172205
F       -6.65520000       1.93810000       5.77500000      -0.21131521       0.26982611       0.36273891
17
Properties=species:S:1:pos:R:3:MACE_forces:R:3 Energy=1.5689772285097765 MACE_energy=1.541215181350708 pbc="F F F"
Au       0.50210000       2.21190000      -0.43180000       0.06387517      -0.54182762       0.58319211
S        0.00000000       0.00000000       0.00000000       0.10569452       0.19134153       0.23368123
C       -0.00000000       0.00000000       1.77730000       0.21444713      -0.05666700      -0.08019897
C        1.19240000      -0.00000000       2.52850000      -0.51848865       0.35215217       0.40194860
C        2.50650000       0.07730000       1.80110000      -0.43950233      -0.38396606       0.04163692
C        1.17190000      -0.04780000       3.92670000       0.29319498       0.01662312      -0.37267083
C       -0.05760000      -0.11440000       4.60850000      -0.36158809      -0.11286972      -0.72917962
C       -1.24500000      -0.16770000       3.86680000       0.26355138       0.14582783       0.42629129
Cl       2.69170000      -0.11350000       4.77270000      -0.71670306       0.08684076       0.37617210
O        3.04600000       1.07320000       1.44850000       0.03067072       0.79623139      -0.13268273
C       -1.21170000      -0.09240000       2.48120000       0.21005371       0.03282044      -0.37347877
F       -2.36140000      -0.10110000       1.81550000       0.12655190      -0.02319259       0.27435902
Cl       3.19870000      -1.53960000       1.49590000       0.05577008      -0.44095194      -0.01086628
C       -0.23000000      -0.17100000       6.09390000       0.38952580       0.31792942      -0.35184431
H       -2.20640000      -0.24860000       4.37540000       0.13513842       0.09948891      -0.17046256
Cl       0.64440000       1.11050000       6.98560000       0.41149759       0.13808791      -0.37354541
O       -0.96370000      -0.91710000       6.65710000      -0.26368934      -0.61786854       0.25764847
27
Properties=species:S:1:pos:R:3:MACE_forces:R:3 Energy=5.349094305696012 MACE_energy=0.09568387269973755 pbc="F F F"
Au       1.23010000      -1.91250000      -0.43760000      -0.01686895       0.22522704       0.71413612
S        0.00000000       0.00000000       0.00000000       0.01054522       0.40886158      -0.49204856
C       -0.00000000      -0.00000000       1.82410000      -0.45211899      -0.14335743      -0.82134366
C       -0.84680000      -1.12030000       2.44050000      -0.05995145      -0.25691861      -0.27631602
H       -0.42980000      -2.08430000       2.09540000      -0.41524234      -0.10827275       0.01053239
H       -1.87310000      -1.07290000       2.04900000       0.06169841      -0.14564656       0.09641866
C        1.44360000       0.00000000       2.45160000       0.01825769       0.53016818      -0.38576874