17
Properties=species:S:1:pos:R:3:MACE_forces:R:3 Energy=0.0932393017589173 MACE_energy=-0.33886128664016724 pbc="F F F"
Au       2.13410000       0.83920000      -0.30000000       0.09199165      -0.01268220      -0.01015769
S        0.00000000       0.00000000       0.00000000       0.10899195      -0.06257288      -0.01139534
C        0.00000000       0.00000000       1.74850000       0.09964342      -0.08987522       0.59421551
N       -1.11850000       0.00250000       2.51650000       0.23445347      -0.59336591       0.15038082
N        1.04480000       0.00000000       2.56990000      -0.50795478       0.44718394      -0.19313374
N       -0.73710000      -0.01320000       3.81590000       0.86065125       0.09827045      -0.13675955
N        0.54730000      -0.00610000       3.82190000      -0.58537161       0.17152698      -0.45997712
C       -2.52780000       0.03010000       2.16430000      -0.24429429       0.00032666       0.38951883
H       -2.58970000       0.22160000       1.08520000       0.30771139       0.00232455       0.30592906
H       -2.98910000       0.87140000       2.70050000       0.17331183       0.70435607      -0.11744447
C       -3.23030000      -1.27090000       2.52990000       0.07819296       0.35669887      -0.47561410
C       -2.77570000      -2.42970000       1.67100000      -0.09832419      -0.64107198      -0.25574601
H       -4.32040000      -1.16160000       2.40270000      -0.00142133      -0.36243019       0.60947406
H       -3.06370000      -1.51670000       3.58980000      -0.55245638      -0.13795446      -0.58810478
O       -2.08830000      -2.32950000       0.68480000       0.20870209       0.54838634       0.02501404
O       -3.24330000      -3.60270000       2.12590000       0.17892532       0.28212929       0.31492746
H       -2.91910000      -4.29350000       1.52190000      -0.35275272      -0.71125036      -0.14112684
38
Properties=species:S:1:pos:R:3:MACE_forces:R:3 Energy=0.32666155485403975 MACE_energy=0.5580313205718994 pbc="F F F"
Au       1.11590000      -1.94450000      -0.49990000      -0.72204292       1.08695745      -0.10552293
S        0.00000000       0.00000000       0.00000000       0.98511791      -1.01313901      -0.05438828
C        0.00000000       0.00000000       1.83020000      -0.41465241      -0.42146909      -0.55175483
H       -0.58190000      -0.83870000       2.23010000      -0.62955409       0.23710008       0.08526155
C        1.38710000      -0.00000000       2.47610000       0.84326637       0.20806561       0.54288614
H       -0.55850000       0.91790000       2.08110000      -0.34024462      -0.48858190       0.27300042
H        1.85250000      -0.96310000       2.20240000       1.08032966      -0.02238292       1.53113711
C        2.32570000       1.11540000       2.00440000      -0.80409092      -0.15349498       0.39689305
C        1.25850000      -0.05850000       3.99940000      -0.34794855      -0.44436255       1.04895484
O        0.39770000      -0.71500000       4.55490000       0.42940345       0.48678568      -0.83205444
N        2.20420000       0.63910000       4.70520000      -0.84326744       0.25421634      -2.79316807
H        2.49020000       1.00330000       0.92410000       0.22261302       1.24487972      -0.55229944
C        3.67200000       1.06180000       2.79080000       0.23454426      -0.03481914       0.40566978
C        1.79320000       2.52190000       2.34180000       0.32857281      -1.02906442      -0.31669027
H        0.70330000       2.63730000       2.29520000       0.29731596       1.24091339      -0.05266878
C        3.18730000       1.59940000       4.16620000      -0.53079307      -0.07588357       0.63624197
C        2.32440000       2.81450000       3.75910000       0.52345669       0.18163617       0.09413150
H        2.08770000       0.62620000       5.71450000       0.06506187      -0.37973419       0.83888829
O        2.10200000       3.78720000       4.42420000      -0.14701851      -0.44885439       0.30560407
C        4.17660000       1.92660000       5.23820000      -0.40440997       0.00303511      -0.49828085
C        4.22800000      -0.33390000       2.83800000      -0.06179827       0.22191601       0.18394980
C        2.37520000       3.57790000       1.42260000      -0.13510746      -0.46283674      -1.21103978
C        4.73690000       1.95490000       2.06260000       0.92087209       0.68645275      -0.00618576
H        5.04890000       1.33710000       1.20500000      -0.59031272      -0.09087437       0.42787582
S        4.15640000       3.51690000       1.22300000       0.66530460      -0.14191389       0.28292155
H        4.12830000      -0.88300000       1.89490000      -0.42804700       0.31190014      -0.88134068
O        1.74150000       4.43710000       0.87630000      -0.29854384      -0.25707144       0.40495658
C        4.98580000       1.04580000       5.83830000       0.59675193       0.11745454      -0.20533788
C        5.97440000       2.21830000       2.88120000      -0.06792884      -0.31337202      -0.44869912
H        6.44770000       1.30370000       3.25280000      -0.32068300      -0.41925246       0.26257640
C        6.53650000       3.39700000       3.15370000      -0.02286832       0.06707264      -0.50797516
H        6.10510000       4.34090000       2.81270000      -0.54392421       0.08087773      -0.01261708
H        4.16500000       2.95930000       5.59470000       0.49454388       0.14879353       0.99204010
H        5.60360000       1.36390000       6.68390000      -0.38393933      -0.01569707      -0.15046488
C        4.83220000      -1.00560000       3.83020000      -0.21701792      -0.13917895       0.35083973
H        5.14860000      -2.03470000       3.62790000       0.35154381      -0.56846172       0.25404978
S        5.29080000      -0.64620000       5.48470000       0.22242990       0.50578773      -0.19837835
H        7.45260000       3.44730000       3.74730000      -0.00693481      -0.16340038       0.06098835
31
Properties=species:S:1:pos:R:3:MACE_forces:R:3 Energy=3.833322836678035 MACE_energy=3.8262267112731934 pbc="F F F"
Au       1.52090000       1.65050000      -0.54200000      -0.19742024      -0.60245472       0.34128129
S        0.00000000       0.00000000       0.00000000      -0.57206392       0.45470732      -0.06905469
C       -0.00000000       0.00000000       1.77400000       1.87800300       0.10536122       0.60455263
C        1.19800000       0.00000000       2.51460000      -0.68427914      -0.17455900      -0.13103992
C       -1.19620000      -0.05240000       2.53210000       0.27387831      -0.06159157      -0.40266651
C       -2.51600000      -0.16490000       1.85630000      -0.24918486      -0.08704421      -0.89445257
C       -1.17570000      -0.06020000       3.93580000      -0.06738764      -0.27644032      -0.37631786
C        0.03150000      -0.03910000       4.63450000      -0.02837807       0.38720578       0.75249726
H       -2.12650000      -0.08190000       4.46130000      -0.28757352      -0.05581339       0.54267108
F        2.36490000       0.01800000       1.86850000      -0.12672149      -0.04367474      -0.33844602
O       -2.71140000      -0.60550000       0.75790000      -0.06173274      -0.05692587      -0.77279842
O       -3.52180000       0.32470000       2.66370000      -0.25022030       0.82994014       0.70681483
C        1.24120000      -0.01640000       3.90600000      -0.45132294      -0.22504422      -0.58862638
O        0.13880000      -0.01500000       5.97270000      -0.72488976      -0.02382900      -0.07757980
C        2.56990000       0.01670000       4.58980000       0.03771288      -0.07283492      -0.28598309
O        3.38400000       0.87330000       4.49560000       0.55755991       1.19478738       0.69758797
C       -1.03420000      -0.07770000       6.76420000       0.07855128      -0.10874072       0.42216814
S       -5.05430000      -0.40750000       2.79160000      -0.30446404      -0.09040105       0.46148443
H       -1.60200000      -1.00250000       6.56660000       0.55230522       0.19540274      -0.26232928
Cl       2.87430000      -1.46040000       5.56550000       0.03004613      -0.74853271       0.23985529
H       -1.68690000       0.79350000       6.58580000       0.54489863       0.09128058      -0.37280881
H       -0.69890000      -0.07360000       7.80840000       0.06083644      -0.05354799       0.14455719
C       -6.00120000       0.43760000       1.50610000       0.18353115       0.46374333       0.16258481
O       -4.90200000      -1.82260000       2.49470000      -0.59130323      -0.73478633       0.07883118
C       -5.81210000      -0.13860000       0.11390000      -0.46611178      -0.24366987      -0.16203892
H       -4.76530000      -0.07350000      -0.20850000      -0.20894834      -0.03158201      -0.66094702
O       -5.49900000       0.06500000       4.09110000      -0.13588539       0.20605865       0.08344375
H       -6.44460000       0.42100000      -0.59180000       0.37269059      -0.14261656      -0.52503937
H       -6.10960000      -1.19620000       0.09160000       0.30490538       0.15444317       0.01249769
H       -5.71060000       1.49380000       1.60320000      -0.09239227      -0.04683788       0.51366991
H       -7.03280000       0.33300000       1.87770000       0.62536055      -0.20200329       0.15563156
19
Properties=species:S:1:pos:R:3:MACE_forces:R:3 Energy=2.253008792777525 MACE_energy=0.8656402230262756 pbc="F F F"
Au       0.37300000      -2.23130000      -0.44970000      -0.13456337       0.53909028       0.53943890
S        0.00000000       0.00000000       0.00000000      -0.08153126      -0.46542045      -0.34464386
C       -0.00000000       0.00000000       1.77400000       0.31015775       0.16766822       0.82895821
C       -1.16760000       0.08330000       2.56240000       0.83757842      -0.22720216       0.81493008
C        1.23360000       0.00000000       2.42730000      -0.05568531       0.04256468       0.02650714
C       -2.53180000       0.03530000       1.90830000       0.66793054      -0.09906670      -0.23358507
F       -2.68820000      -1.12630000       1.21790000      -0.32393056      -0.13962355      -0.46842194
C       -1.07050000       0.18270000       3.95570000       0.22145645      -0.19027665      -0.89495152
F       -2.69480000       1.06630000       1.04280000      -0.56457549       0.42052662      -0.45715344
H       -3.34670000       0.08740000       2.64270000      -0.42267603       0.04174774       0.64573908
F        2.37430000      -0.11160000       1.78720000       0.47344255      -0.12726708       0.31049544
N        0.15630000       0.17930000       4.56610000      -0.04499245      -0.07771894       1.01985872
C       -2.17850000       0.30530000       4.95750000       0.07273483       0.09182051       1.02131128
N        1.37270000       0.06380000       3.77330000       0.68806970       0.09215315      -0.34725979
O        2.42920000       0.04760000       4.39270000      -0.60532904       0.04617471      -1.10896063
H       -3.16950000       0.33680000       4.49640000      -0.44679505       0.03583524      -0.06598841
O        0.34290000       0.25690000       5.77830000      -0.83580738      -0.05351720      -0.57984686
H       -2.03120000       1.21670000       5.55760000       0.13117564      -0.06048733      -0.36452311
H       -2.13430000      -0.53610000       5.66680000       0.11333998      -0.03700110      -0.34190449
35
Properties=species:S:1:pos:R:3:MACE_forces:R:3 Energy=2.7519740670728927 MACE_energy=2.512019634246826 pbc="F F F"
Au       0.46260000       2.20280000      -0.51380000       0.06576701      -0.35869342       0.25749192
S        0.00000000       0.00000000       0.00000000       0.46961772       0.12917311       0.07099009
C        0.00000000       0.00000000       1.77910000      -0.64300156       0.34920612      -0.08854980
C        1.16740000       0.00000000       2.57560000      -0.17457122       0.05369461      -0.39468014
C       -1.23040000      -0.14730000       2.43530000      -0.20531662      -0.06557437       0.80171752
H       -2.14570000      -0.14750000       1.84260000       0.54993147      -0.21811558      -0.06368873
C       -1.32920000      -0.32030000       3.82100000      -0.32262716      -0.03917510      -0.28694236
C        2.53600000       0.23750000       2.01940000       0.02947876       0.05756663      -0.63451648
C        1.08170000      -0.14350000       3.96400000      -0.08958410      -0.16631272      -0.54250246
C       -0.15450000      -0.28620000       4.61300000       0.12737300       0.21376258       0.12900707
O       -0.27660000      -0.35000000       5.94170000      -0.35555762      -0.22891420       0.32774502
H        1.99940000      -0.12560000       4.54600000      -0.35311925      -0.13410065      -0.32461751
O        2.84900000       1.07070000       1.20780000      -0.55130363       0.12225425      -0.05024922
C       -2.70840000      -0.49200000       4.35280000       0.08932677       0.00925195      -0.14774247
O        3.43800000      -0.56940000       2.62600000       0.28473610      -0.02085630      -0.47895399
O       -3.67680000       0.06140000       3.93990000      -0.11749674       0.30653358       0.15358582
C        4.81810000      -0.25250000       2.47990000       0.30849674       0.00735344      -0.03136691
Cl      -2.88000000      -1.77140000       5.61400000       0.68466997       0.14595410       0.05250362
C        0.89070000      -0.32620000       6.77140000      -0.23061195      -0.12374899       0.29784831
H        1.55410000      -1.16470000       6.49580000      -0.15382940      -0.37314659      -0.25410169
H        1.45010000       0.60820000       6.59740000      -0.45746621       0.00933986      -0.06403609
C        0.44540000      -0.43910000       8.21690000       0.32086670       0.42160994      -0.21944883
C       -0.25650000      -1.75660000       8.54030000      -0.04597256      -0.12850328      -0.02912685
H       -0.21660000       0.41330000       8.44590000       0.02080256       0.66844869       0.16905978
H        1.34550000      -0.31510000       8.84260000       0.18013501       0.32166347       0.35536331
H        5.21980000      -0.70610000       1.56010000      -0.45646641       0.11044198       0.07286477
H        4.94300000       0.83780000       2.40450000       0.33376628       0.15751180       0.11433701
C        5.52650000      -0.82460000       3.70890000       0.13469782      -0.19734997       0.19721085
C        4.90400000      -0.35550000       4.94970000      -0.02498078       0.12953176       0.08963606
H        5.47700000      -1.92540000       3.69660000       0.12705439      -0.10213203       0.23682281
H       -1.15920000      -1.87870000       7.92460000      -0.11590660      -0.58858883      -0.14545155
N        4.35050000       0.01330000       5.89790000       0.53896117      -0.06474830       0.22926486
H        6.59120000      -0.54200000       3.69650000       0.19201678      -0.09686299       0.14969601
H        0.40500000      -2.61680000       8.34350000      -0.19554092      -0.12832136      -0.11358090
H       -0.55410000      -1.79760000       9.59940000       0.03565479      -0.17815301       0.16441099
24
Properties=species:S:1:pos:R:3:MACE_forces:R:3 Energy=1.798109050868122 MACE_energy=1.2919882535934448 pbc="F F F"
Au       2.30610000       0.00040000      -0.26250000      -0.23219733      -0.03980816       1.06103349
S        0.00000000       0.00000000       0.00000000      -0.33159873       0.17165871       0.16069768
C        0.00000000       0.00000000       1.76490000       0.71740192      -0.07164878      -0.61137486
N        1.09290000      -0.00000000       2.44690000       0.03996438       0.07441596      -0.54469293
N       -1.26900000      -0.00270000       2.33730000       0.12484045       0.19687691       0.61057884
C        1.09050000       0.00450000       3.84170000      -0.04497449      -0.01524433       0.06748682
C       -2.43150000      -0.09200000       1.54320000      -0.23567718       0.03488039       0.06904847
O        2.13550000      -0.16750000       4.44390000       0.43125182       0.00630930      -0.51700372
C       -0.21590000       0.24370000       4.53570000       0.09354854      -0.31010881      -0.41090417
C       -1.45660000       0.12260000       3.74620000      -0.86218441      -0.09073580       0.67933685
O       -2.59380000       0.13000000       4.17000000       0.46857956       0.07930502      -0.25171959
C       -0.27940000       0.56290000       5.87400000      -0.07557564      -0.00709322      -0.02891377
C       -2.96150000      -1.25970000       1.16290000      -0.28596759      -0.53343713      -0.12494147
I       -3.37200000       1.73410000       0.98980000       0.27378163       0.00503192       0.06415252
Cl      -2.25670000      -2.77320000       1.60530000       0.48848760      -0.23952931       0.43146354
H       -3.85650000      -1.32880000       0.54470000      -0.36700284       0.52957922      -0.35558632
C        0.95390000       0.71210000       6.71650000      -0.23650788      -0.20677103      -0.14748591
H        1.37750000      -0.28310000       6.93370000       0.09210308      -0.16660884      -0.21379086
H        0.71880000       1.21170000       7.66590000       0.04836576       0.37298122       0.35398576
H        1.75890000       1.23920000       6.18850000       0.27252248       0.13785778       0.07454467
C       -1.58370000       0.77520000       6.59060000       0.21365255      -0.05590396      -0.20211844
H       -2.18460000      -0.14740000       6.58290000      -0.23582824      -0.17911926      -0.38281986
H       -1.41420000       1.09240000       7.62760000      -0.00240367       0.15429536       0.37875035
H       -2.21480000       1.51360000       6.07390000      -0.35458186       0.15281671      -0.15972704
40
Properties=species:S:1:pos:R:3:MACE_forces:R:3 Energy=2.2109878242736793 MACE_energy=2.7902278900146484 pbc="F F F"
Au       1.98680000       1.32570000       0.11980000      -0.05934100      -0.45028019      -0.10610750
S        0.00000000       0.00000000       0.00000000      -0.55520737       0.04676742      -0.23231052
C       -0.00000000      -0.00000000       1.74600000       0.09937068      -0.28103286       0.17398447
N        1.09280000       0.00000000       2.46280000      -0.72069937       1.06170821       0.32064736
N       -1.12630000       0.27680000       2.54240000       1.43254185      -0.62430561      -0.48100907
C        0.77800000       0.53630000       3.69510000       0.61691630      -0.64867097       0.30076471
C       -0.69340000       0.56310000       3.84030000       0.17431949       0.19470276      -0.99479949
C       -1.51220000       0.86170000       4.89340000       0.14338893      -0.03789987       0.74282736
C       -2.48610000       0.25110000       2.11690000      -0.23754740      -0.07872306      -0.77178276
C       -2.95140000       1.24920000       1.25610000      -0.80955911      -0.80561703       0.29901946
H       -2.57330000       1.00590000       4.68670000      -0.69787848       0.65919334       0.97716403
C       -1.05720000       0.92470000       6.27490000       0.52381080      -0.56654239      -0.44199562
O        0.02900000       0.54740000       6.68310000       0.05914624      -0.32968241      -0.95299298
C       -3.33560000      -0.76320000       2.57140000      -0.31839269      -0.00752696      -0.19541067
C        1.76680000       1.28550000       4.26970000       0.07250260      -0.06087975      -0.05976072
H       -2.94640000      -1.53500000       3.23720000      -0.06581093      -0.33640385       0.12423103
S        3.34220000       1.34650000       3.26760000      -0.82374519      -0.24318868       0.31091803
C       -2.05270000       1.43890000       7.29110000      -1.13075089       0.81341106       0.71964318
C       -3.40010000       1.03850000       7.31830000      -0.36983386       0.22904015       0.73367012
H       -3.80210000       0.39070000       6.53380000       0.24858154      -0.17515925      -0.11635974
C       -4.66950000      -0.77120000       2.16000000       0.33857468       0.35906550      -0.21365559
N        1.79360000       2.15140000       5.30910000       0.91009963       0.31069106       0.44452173
C       -5.15190000       0.21250000       1.29390000       0.35067245       0.06097442       0.10350268
H       -2.28050000       2.03220000       0.90600000       0.52704144       0.27709520       0.05287429
C        2.93740000       2.72610000       5.39920000      -0.20450060       0.19110981      -0.40325570
C       -1.67020000       2.23060000       8.36620000      -0.42475212      -0.13062097      -0.37963861
N       -0.31880000       2.80860000       8.47860000       0.55738825       0.24096924       0.14223361
O        3.92670000       2.41240000       4.52970000      -0.23567648       0.09516367       0.35367090
O        3.09330000       2.23040000       2.06040000       0.39565438       0.60192633      -0.10342240
O        0.23520000       2.68800000       9.55570000       0.28112945      -0.17004170      -0.61341465
C       -4.28560000       1.21420000       0.84550000      -0.25496173       0.26910156      -0.16616902
C       -2.60670000       2.54240000       9.35280000       0.10502336      -0.10029811      -0.11596089
Cl      -4.87700000       2.44600000      -0.23570000       0.43821394       0.56839383      -0.23372599
H       -6.19080000       0.20930000       0.96230000      -0.06571615      -0.73460978       0.52176464
O        0.10100000       3.41090000       7.50950000      -0.34728897       0.32194892       0.59056842
N       -4.26420000       1.37210000       8.27610000       0.64357769      -0.07588486      -0.17353375
N       -3.87050000       2.12670000       9.28900000      -0.01000941      -0.10843427      -0.37630492
H       -2.32960000       3.15570000      10.21400000      -0.34175372       0.16256374       0.15263239
H        3.19750000       3.47930000       6.14810000      -0.13970333      -0.54433572       0.04388511
H       -5.34140000      -1.55810000       2.50890000      -0.10482509       0.04631244       0.02308738
19
Properties=species:S:1:pos:R:3:MACE_forces:R:3 Energy=0.2735529685423197 MACE_energy=0.024870455265045166 pbc="F F F"
Au       1.13550000      -1.92930000      -0.51630000      -0.49860519       0.09889932       0.37159431
S        0.00000000       0.00000000       0.00000000       0.53925681      -0.23889518       0.52165419
C        0.00000000       0.00000000       1.85150000      -0.46435350       0.13379134      -0.92608523
C        1.36770000       0.00000000       2.47500000       0.93340135       0.00445786       0.40112585
C        2.05330000       1.21530000       2.63140000       0.03596643      -0.09633125      -0.30241013
C        2.04130000      -1.18510000       2.84100000       0.26118451       0.31766492      -0.02580266
C        1.42800000      -2.53070000       2.69870000       0.52681184      -0.82390058       0.72034943
C        3.35180000      -1.13570000       3.34350000      -0.76618713       0.41560113      -0.42037737
H        0.35090000      -2.55210000       2.40920000      -0.71820563       0.42064112      -0.59030557
H       -0.51860000       0.94470000       2.08170000      -0.47162676      -0.46152967       0.19644752
H       -0.63900000      -0.81320000       2.21610000       0.18506405      -0.06863949      -0.09434438
O        2.02570000      -3.56980000       2.88540000       0.05460866       0.63725901      -0.29735655
C        4.00990000       0.08240000       3.49840000       0.04319898      -0.45729393       0.02603610
C        3.34650000       1.26810000       3.13800000       0.22461545      -0.39415890       0.04832755
H        3.83200000      -2.08240000       3.60630000      -0.03128251      -0.13283332       0.08365642
H        3.86810000       2.21910000       3.26110000       0.30057207      -0.01290369       0.19987375
O        5.27090000       0.18680000       3.98360000      -0.06613034       0.42325515      -0.03891876
H        5.61010000      -0.69420000       4.19070000       0.22643399       0.01449594       0.12736256
H        1.55820000       2.14400000       2.33690000      -0.31472307       0.22042006      -0.00082716
26
Properties=species:S:1:pos:R:3:MACE_forces:R:3 Energy=0.189841541330705 MACE_energy=-0.18982037901878357 pbc="F F F"
Au       0.93100000      -2.05360000      -0.50450000       0.13382158       0.73177892       0.33414555
S        0.00000000       0.00000000       0.00000000       0.10190909      -0.36603439       0.32610145
C        0.00000000      -0.00000000       1.77750000      -0.02415434      -0.21901673       0.91014445
C        1.16590000      -0.00000000       2.57800000      -0.79525650       0.03225751      -1.03156424
Br       2.87220000      -0.14350000       1.76390000      -1.36781085      -0.22412132       0.53646034
C       -1.26180000       0.09560000       2.39090000       0.79860926      -0.03922576       0.85005867
C        1.04960000       0.08860000       3.97830000      -0.19227599      -0.11119123      -0.98611099
H       -2.15600000       0.07800000       1.77360000       0.82990170       0.23896831      -0.70300376
C       -1.37110000       0.21050000       3.77920000       0.36338776      -0.18661562      -0.94369340
C       -0.21020000       0.20060000       4.56350000      -0.38284504      -0.00846756       0.19433650
N       -2.60320000       0.32410000       4.44770000       0.23927104      -0.39935181       0.76839584
H       -0.28300000       0.27730000       5.64850000      -0.13869861       0.00476584      -0.13868204
C        2.25810000       0.07620000       4.89910000       0.14256799       0.02533465       0.12294701
F        2.95850000      -1.06130000       4.78620000       0.49601600      -0.13853690       0.04145956
F        3.08870000       1.09750000       4.65020000       0.69588834       0.23724177       0.07668869
C       -3.84940000       0.35000000       3.90190000       1.18232262      -0.05147175      -0.64861810
H       -2.55860000       0.39390000       5.45870000      -0.68351066       0.28328627      -0.07545212
F        1.88590000       0.17970000       6.18940000      -0.48702261       0.00931741      -0.44934317
O       -4.14140000       0.27290000       2.72930000      -0.45602867      -0.07739937       0.91493315
C       -4.98090000       0.48700000       4.95400000      -0.12475801       0.25002223      -0.45313776
F       -5.79560000      -0.57760000       4.86600000      -0.13765159      -0.11162014       0.03997481
C       -5.81690000       1.77380000       4.75250000      -0.08245623       0.20728718      -0.05788866
F       -4.47520000       0.53280000       6.21960000      -0.08359976      -0.03119303       0.49464825
F       -4.98690000       2.82470000       4.70490000      -0.01642645       0.23917031       0.09995853
F       -6.51480000       1.71900000       3.62740000      -0.29353350       0.01320384      -0.01215468
F       -6.65520000       1.93810000       5.77500000       0.28233379      -0.30838865      -0.21060389
17
Properties=species:S:1:pos:R:3:MACE_forces:R:3 Energy=1.5689772285097765 MACE_energy=1.6029921770095825 pbc="F F F"
Au       0.50210000       2.21190000      -0.43180000       0.17864838      -0.61807197       0.36510241
S        0.00000000       0.00000000       0.00000000       0.13461521       0.21136430       0.37986934
C       -0.00000000       0.00000000       1.77730000       0.87891781       0.48778859      -0.26441956
C        1.19240000      -0.00000000       2.52850000      -0.38014323       0.00778235       0.61613888
C        2.50650000       0.07730000       1.80110000       0.12221201      -0.18382752      -0.32409114
C        1.17190000      -0.04780000       3.92670000       0.71360588       0.15824649      -0.60239971
C       -0.05760000      -0.11440000       4.60850000       0.27999997      -0.08753307       0.69262278
C       -1.24500000      -0.16770000       3.86680000      -0.17244431       0.45550328       0.24854960
Cl       2.69170000      -0.11350000       4.77270000      -1.61348021       0.09674685      -1.25082803
O        3.04600000       1.07320000       1.44850000      -0.23527543       0.09518276       0.26046062
C       -1.21170000      -0.09240000       2.48120000       0.15791085       0.05729041      -0.38969782
F       -2.36140000      -0.10110000       1.81550000      -0.24725011      -0.17030843       0.33527493
Cl       3.19870000      -1.53960000       1.49590000       0.08808543      -0.08696913       0.13073879
C       -0.23000000      -0.17100000       6.09390000       0.19338389      -0.23573276      -0.67843914
H       -2.20640000      -0.24860000       4.37540000      -0.10288902      -0.11723176      -0.31610185
Cl       0.64440000       1.11050000       6.98560000       0.27118856       0.53751391       0.24048717
O       -0.96370000      -0.91710000       6.65710000      -0.26708564      -0.60774434       0.55673277
27
Properties=species:S:1:pos:R:3:MACE_forces:R:3 Energy=5.349094305696012 MACE_energy=-0.3707241415977478 pbc="F F F"
Au       1.23010000      -1.91250000      -0.43760000      -0.32903898       0.47454479      -0.83496475
S        0.00000000       0.00000000       0.00000000       0.73887992      -0.66312075       0.31369594
C       -0.00000000      -0.00000000       1.82410000      -0.80302882      -0.13301229      -0.16924438
C       -0.84680000      -1.12030000       2.44050000       0.07147020      -0.27912897      -0.19900733
H       -0.42980000      -2.08430000       2.09540000      -0.29477617      -0.19698679      -0.11732629
H       -1.87310000      -1.07290000       2.04900000      -0.34528047       0.07686727       0.19615595
C        1.44360000       0.00000000       2.45160000       0.96067548      -0.06486471       1.08297420