17
Properties=species:S:1:pos:R:3:MACE_forces:R:3 Energy=0.0932393017589173 MACE_energy=-0.3910578191280365 pbc="F F F"
Au       2.13410000       0.83920000      -0.30000000       0.23822799      -0.13771793       0.52712399
S        0.00000000       0.00000000       0.00000000      -0.29926574      -0.06115365       0.15660036
C        0.00000000       0.00000000       1.74850000       0.14543122       0.15446535       0.40370342
N       -1.11850000       0.00250000       2.51650000       0.39783442      -0.22041512      -0.05557569
N        1.04480000       0.00000000       2.56990000      -0.50422573       0.39502716      -0.75353676
N       -0.73710000      -0.01320000       3.81590000       0.33913657       0.16622163       0.02795005
N        0.54730000      -0.00610000       3.82190000      -0.06470226       0.11415628      -0.32716987
C       -2.52780000       0.03010000       2.16430000      -0.02560221      -0.07416022       0.21475124
H       -2.58970000       0.22160000       1.08520000       0.34733692       0.06338072      -0.09845198
H       -2.98910000       0.87140000       2.70050000      -0.02473692       0.30872726       0.37882140
C       -3.23030000      -1.27090000       2.52990000      -0.39255905      -0.09009123      -0.23373207
C       -2.77570000      -2.42970000       1.67100000       0.01686285      -0.55240476       0.06222894
H       -4.32040000      -1.16160000       2.40270000       0.31554139      -0.10618614       0.19095072
H       -3.06370000      -1.51670000       3.58980000      -0.31478152       0.01794842      -0.17028888
O       -2.08830000      -2.32950000       0.68480000      -0.15965375      -0.01921839      -0.29021043
O       -3.24330000      -3.60270000       2.12590000       0.27883327       0.32258570      -0.39353931
H       -2.91910000      -4.29350000       1.52190000      -0.29367745      -0.28116503       0.36037487
38
Properties=species:S:1:pos:R:3:MACE_forces:R:3 Energy=0.32666155485403975 MACE_energy=-1.281750202178955 pbc="F F F"
Au       1.11590000      -1.94450000      -0.49990000       0.23630422       0.05473110       0.34962130
S        0.00000000       0.00000000       0.00000000       0.27846026      -0.15499002       0.01795001
C        0.00000000       0.00000000       1.83020000      -0.49233589       0.31158113       0.33639246
H       -0.58190000      -0.83870000       2.23010000       0.34488067       0.61632496      -0.00490937
C        1.38710000      -0.00000000       2.47610000       0.31345519       0.39568403       0.23198751
H       -0.55850000       0.91790000       2.08110000       0.04325464      -0.28911972       0.07660652
H        1.85250000      -0.96310000       2.20240000       0.13648582       0.12530452      -0.09907797
C        2.32570000       1.11540000       2.00440000      -0.28390920      -0.04575214       0.37810022
C        1.25850000      -0.05850000       3.99940000       0.46010035      -0.41711655      -0.57586586
O        0.39770000      -0.71500000       4.55490000      -0.24962816      -0.01600294      -0.10321149
N        2.20420000       0.63910000       4.70520000       0.03249705       0.61796749       0.19930992
H        2.49020000       1.00330000       0.92410000       0.13036923       0.22709425      -0.26623923
C        3.67200000       1.06180000       2.79080000       0.26319909       0.38188767       0.51838005
C        1.79320000       2.52190000       2.34180000      -0.28382286      -0.98914850       0.39924204
H        0.70330000       2.63730000       2.29520000      -0.03825949      -0.07678525       0.32617119
C        3.18730000       1.59940000       4.16620000       0.08352727      -0.50563914      -0.28822577
C        2.32440000       2.81450000       3.75910000       0.34884903       0.47639415      -0.35650414
H        2.08770000       0.62620000       5.71450000      -0.03885242      -0.00767049      -1.17073512
O        2.10200000       3.78720000       4.42420000      -0.30176637       0.04592500       0.28823262
C        4.17660000       1.92660000       5.23820000       0.37441665      -0.27482903       0.69793928
C        4.22800000      -0.33390000       2.83800000      -0.37324998       0.10649066       0.64856315
C        2.37520000       3.57790000       1.42260000       0.32935721       0.33511057      -0.18606040
C        4.73690000       1.95490000       2.06260000      -0.20879443      -0.47211611       0.12862211
H        5.04890000       1.33710000       1.20500000       0.00319955       0.26321933       0.28379685
S        4.15640000       3.51690000       1.22300000      -0.63243282      -0.22992364       0.10457452
H        4.12830000      -0.88300000       1.89490000      -0.34999818      -0.17768897      -0.67629957
O        1.74150000       4.43710000       0.87630000       0.03193200      -0.46069476      -0.19632083
C        4.98580000       1.04580000       5.83830000      -0.22947393       0.07642838      -0.19425702
C        5.97440000       2.21830000       2.88120000      -0.11448462       0.26956025      -0.41140282
H        6.44770000       1.30370000       3.25280000       0.42903697       0.09138577      -0.01632643
C        6.53650000       3.39700000       3.15370000       0.21245286      -0.29057536      -0.02866369
H        6.10510000       4.34090000       2.81270000       0.24543530       0.09664617       0.09153485
H        4.16500000       2.95930000       5.59470000      -0.28398034      -0.31648529      -0.35349819
H        5.60360000       1.36390000       6.68390000      -0.09993616      -0.01942224      -0.31461304
C        4.83220000      -1.00560000       3.83020000      -0.15665624       0.11052927       0.34329075
H        5.14860000      -2.03470000       3.62790000       0.06292153       0.19388485      -0.09086572
S        5.29080000      -0.64620000       5.48470000      -0.13223706      -0.14368279       0.00348714
H        7.45260000       3.44730000       3.74730000      -0.09031667       0.09149288      -0.09072582
31
Properties=species:S:1:pos:R:3:MACE_forces:R:3 Energy=3.833322836678035 MACE_energy=4.34090518951416 pbc="F F F"
Au       1.52090000       1.65050000      -0.54200000       0.09415205      -0.18665928       0.33135548
S        0.00000000       0.00000000       0.00000000       0.12391585       0.14000914      -0.06151218
C       -0.00000000       0.00000000       1.77400000       0.03923529       0.23237324       0.07903375
C        1.19800000       0.00000000       2.51460000      -0.36301047       0.12733968      -0.56482661
C       -1.19620000      -0.05240000       2.53210000      -0.03932074      -0.21168824      -0.11254196
C       -2.51600000      -0.16490000       1.85630000       0.09006483       0.04567380      -0.16465309
C       -1.17570000      -0.06020000       3.93580000       0.10921097      -0.18900834       0.20931762
C        0.03150000      -0.03910000       4.63450000      -0.59780335       0.09855790      -0.40315336
H       -2.12650000      -0.08190000       4.46130000       0.23931366      -0.06938328      -0.15031433
F        2.36490000       0.01800000       1.86850000      -0.09132539      -0.27729434      -0.74795437
O       -2.71140000      -0.60550000       0.75790000       0.15564659      -0.24814197      -0.44060460
O       -3.52180000       0.32470000       2.66370000       0.57773739       0.78020847       0.44102275
C        1.24120000      -0.01640000       3.90600000       0.27803826      -0.19219354       0.54943019
O        0.13880000      -0.01500000       5.97270000       0.26007682       0.20154753       0.51141679
C        2.56990000       0.01670000       4.58980000      -0.64022517      -0.06353354       0.66255629
O        3.38400000       0.87330000       4.49560000       0.17337643       1.05240953       0.07007656
C       -1.03420000      -0.07770000       6.76420000       0.14559850       0.07230750      -0.58829534
S       -5.05430000      -0.40750000       2.79160000      -0.71190554      -0.02546661      -0.25091177
H       -1.60200000      -1.00250000       6.56660000       0.08519609      -0.20965669       0.20706794
Cl       2.87430000      -1.46040000       5.56550000       0.07432091      -0.81026208      -0.02856040
H       -1.68690000       0.79350000       6.58580000      -0.15278229       0.34352827       0.11795102
H       -0.69890000      -0.07360000       7.80840000       0.22171021      -0.09014843       0.10320663
C       -6.00120000       0.43760000       1.50610000       0.29843742      -0.64717829      -0.60598552
O       -4.90200000      -1.82260000       2.49470000      -0.22507499      -0.19395277       0.06351338
C       -5.81210000      -0.13860000       0.11390000       0.27759844      -0.47396946       0.16203773
H       -4.76530000      -0.07350000      -0.20850000      -0.27538139       0.10310517       0.23486668
O       -5.49900000       0.06500000       4.09110000       0.30091429      -0.37407398       0.30921426
H       -6.44460000       0.42100000      -0.59180000      -0.23379143       0.38764039      -0.17124672
H       -6.10960000      -1.19620000       0.09160000       0.01772057       0.29471350       0.60191309
H       -5.71060000       1.49380000       1.60320000      -0.04735717       0.04469921      -0.19021943
H       -7.03280000       0.33300000       1.87770000      -0.18428671       0.33849755      -0.17320079
19
Properties=species:S:1:pos:R:3:MACE_forces:R:3 Energy=2.253008792777525 MACE_energy=-0.17266908288002014 pbc="F F F"
Au       0.37300000      -2.23130000      -0.44970000      -0.10722750       0.34196270       0.56867397
S        0.00000000       0.00000000       0.00000000       0.28728491       0.00982568      -0.35657725
C       -0.00000000       0.00000000       1.77400000      -0.14588523      -0.37293065      -0.43678713
C       -1.16760000       0.08330000       2.56240000       0.06715852       0.05029479      -0.71057856
C        1.23360000       0.00000000       2.42730000      -0.23958300       0.01864050       0.19389683
C       -2.53180000       0.03530000       1.90830000      -0.15899634      -0.17390063      -0.31343350
F       -2.68820000      -1.12630000       1.21790000       0.44743493      -0.00766739      -0.00450873
C       -1.07050000       0.18270000       3.95570000       0.37321177       0.07584750       0.97569066
F       -2.69480000       1.06630000       1.04280000      -0.02061337       0.01696502       0.36796939
H       -3.34670000       0.08740000       2.64270000       0.07812147       0.15511696      -0.04520179
F        2.37430000      -0.11160000       1.78720000       0.19887346      -0.12937179      -0.90205479
N        0.15630000       0.17930000       4.56610000       0.14468241      -0.05152921       0.25570428
C       -2.17850000       0.30530000       4.95750000       0.45678991       0.05443173       0.06146211
N        1.37270000       0.06380000       3.77330000       0.16767435       0.19483510       0.87301242
O        2.42920000       0.04760000       4.39270000      -0.39640230      -0.05108996      -0.02732960
H       -3.16950000       0.33680000       4.49640000      -0.38017944      -0.02776246       0.16469631
O        0.34290000       0.25690000       5.77830000       0.48355651      -0.17026454      -1.01737547
H       -2.03120000       1.21670000       5.55760000      -0.62040198       0.01650836       0.15343010
H       -2.13430000      -0.53610000       5.66680000      -0.63549906       0.05008826       0.19931053
35
Properties=species:S:1:pos:R:3:MACE_forces:R:3 Energy=2.7519740670728927 MACE_energy=2.433471441268921 pbc="F F F"
Au       0.46260000       2.20280000      -0.51380000       0.19581613      -0.07581578       0.03200047
S        0.00000000       0.00000000       0.00000000      -0.22341987       0.01493089      -0.27170104
C        0.00000000       0.00000000       1.77910000      -0.21285674      -0.20630004       0.35052329
C        1.16740000       0.00000000       2.57560000       0.20548269      -0.01075785      -0.20267482
C       -1.23040000      -0.14730000       2.43530000       0.35741252      -0.07868810      -0.00770467
H       -2.14570000      -0.14750000       1.84260000       0.34288311       0.02849512      -0.80656159
C       -1.32920000      -0.32030000       3.82100000       0.49845588      -0.23566604       0.76837391
C        2.53600000       0.23750000       2.01940000      -0.13555604       0.19393329      -0.29304293
C        1.08170000      -0.14350000       3.96400000      -0.17422631      -0.03540698       0.43293989
C       -0.15450000      -0.28620000       4.61300000       0.10050237       0.05362070       0.37757692
O       -0.27660000      -0.35000000       5.94170000       0.46846485       0.41630560       0.00268302
H        1.99940000      -0.12560000       4.54600000      -0.98337090       0.13079953      -0.50600368
O        2.84900000       1.07070000       1.20780000      -0.18236242       0.35381967      -0.04925662
C       -2.70840000      -0.49200000       4.35280000       0.49102357       0.18133323       0.37085858
O        3.43800000      -0.56940000       2.62600000       0.16239488      -0.06902439      -0.55400038
O       -3.67680000       0.06140000       3.93990000      -0.73664606       0.35739082      -0.07523665
C        4.81810000      -0.25250000       2.47990000      -0.37490457      -0.15934505      -0.17248726
Cl      -2.88000000      -1.77140000       5.61400000      -0.65193629      -0.53775465      -0.00581704
C        0.89070000      -0.32620000       6.77140000      -0.32161650      -0.60582483      -0.69882101
H        1.55410000      -1.16470000       6.49580000      -0.28138024      -0.08207477      -0.15570632
H        1.45010000       0.60820000       6.59740000       0.13495924       0.12268103       0.25710148
C        0.44540000      -0.43910000       8.21690000       0.24388202      -0.03349848       0.31083015
C       -0.25650000      -1.75660000       8.54030000      -0.14997168      -0.08736400      -0.00270002
H       -0.21660000       0.41330000       8.44590000      -0.05642258      -0.08343519      -0.30293295
H        1.34550000      -0.31510000       8.84260000      -0.41477793       0.01593509       0.32674941
H        5.21980000      -0.70610000       1.56010000      -0.12236036       0.29185122       0.23902552
H        4.94300000       0.83780000       2.40450000       0.08706266      -0.11029045      -0.18330942
C        5.52650000      -0.82460000       3.70890000      -0.14345466      -0.16015635      -0.40193954
C        4.90400000      -0.35550000       4.94970000       0.10678443       0.31090024       0.56708157
H        5.47700000      -1.92540000       3.69660000       0.33284849      -0.28056043       0.26091021
H       -1.15920000      -1.87870000       7.92460000       0.21683767       0.11134709       0.01452265
N        4.35050000       0.01330000       5.89790000       0.60204852       0.11500739       0.15843859
H        6.59120000      -0.54200000       3.69650000       0.36138329      -0.11563252       0.17340353
H        0.40500000      -2.61680000       8.34350000       0.19250678       0.19920710      -0.18411967
H       -0.55410000      -1.79760000       9.59940000       0.06451443       0.07003782       0.23099628
24
Properties=species:S:1:pos:R:3:MACE_forces:R:3 Energy=1.798109050868122 MACE_energy=1.0417448282241821 pbc="F F F"
Au       2.30610000       0.00040000      -0.26250000      -0.05871156      -0.02425828       0.40111846
S        0.00000000       0.00000000       0.00000000      -0.17992377      -0.12332640      -0.68730724
C        0.00000000       0.00000000       1.76490000       0.42857298       0.02071574      -0.85786289
N        1.09290000      -0.00000000       2.44690000       0.19806609      -0.13866003       1.05339718
N       -1.26900000      -0.00270000       2.33730000      -0.09480077      -0.16467226       0.47483662
C        1.09050000       0.00450000       3.84170000      -0.34083158      -0.03746665      -0.53741086
C       -2.43150000      -0.09200000       1.54320000      -0.16972360       0.38715196       0.35283077
O        2.13550000      -0.16750000       4.44390000      -0.19756234       0.25106919      -0.37790096
C       -0.21590000       0.24370000       4.53570000       0.26960212      -0.21349639      -0.46044576
C       -1.45660000       0.12260000       3.74620000      -0.23872706      -0.10025121       0.35834533
O       -2.59380000       0.13000000       4.17000000       0.20216307      -0.07439911      -0.40648660
C       -0.27940000       0.56290000       5.87400000      -0.12003233       0.00019789       0.23766649
C       -2.96150000      -1.25970000       1.16290000       0.18080451      -0.06706384       0.00091141
I       -3.37200000       1.73410000       0.98980000       0.14287168      -0.15026429      -0.09613870
Cl      -2.25670000      -2.77320000       1.60530000       0.25686514       0.31865233       0.22021100
H       -3.85650000      -1.32880000       0.54470000      -0.21046734       0.11831968       0.14932933
C        0.95390000       0.71210000       6.71650000       0.05625427      -0.09253048      -0.23038471
H        1.37750000      -0.28310000       6.93370000       0.00712090       0.39215308      -0.23784322
H        0.71880000       1.21170000       7.66590000      -0.11171210       0.06121206       0.36530700
H        1.75890000       1.23920000       6.18850000       0.21899879      -0.32552475       0.18516502
C       -1.58370000       0.77520000       6.59060000       0.06641605       0.14977433       0.33338234
H       -2.18460000      -0.14740000       6.58290000      -0.06199450       0.61244655      -0.38574719
H       -1.41420000       1.09240000       7.62760000      -0.07048327      -0.07975792      -0.00118737
H       -2.21480000       1.51360000       6.07390000      -0.17276543      -0.72002113       0.14621454
40
Properties=species:S:1:pos:R:3:MACE_forces:R:3 Energy=2.2109878242736793 MACE_energy=3.3031139373779297 pbc="F F F"
Au       1.98680000       1.32570000       0.11980000      -0.45737582      -0.40250543      -0.40427148
S        0.00000000       0.00000000       0.00000000      -0.09777579       0.18411149       0.01236022
C       -0.00000000      -0.00000000       1.74600000       0.18245885      -0.02842496       0.15324485
N        1.09280000       0.00000000       2.46280000       0.15915543       0.82117498      -0.62993264
N       -1.12630000       0.27680000       2.54240000      -0.03734246      -0.29810137      -0.60490084
C        0.77800000       0.53630000       3.69510000      -0.25254759      -0.34857413       0.39434302
C       -0.69340000       0.56310000       3.84030000      -0.53693390      -0.22748169       0.07652241
C       -1.51220000       0.86170000       4.89340000       0.75782174      -0.01003579      -0.18483205
C       -2.48610000       0.25110000       2.11690000       0.32408214       0.28122175      -0.01690382
C       -2.95140000       1.24920000       1.25610000       0.00483948      -0.10957535       0.09970918
H       -2.57330000       1.00590000       4.68670000       0.11225024       0.17836839       0.45014417
C       -1.05720000       0.92470000       6.27490000      -0.17641613       0.02950843      -0.12533835
O        0.02900000       0.54740000       6.68310000       0.12018228       0.31569040       0.05196845
C       -3.33560000      -0.76320000       2.57140000       0.22923687       0.08527781       0.18621016
C        1.76680000       1.28550000       4.26970000      -0.17444487       0.10429215       0.12415122
H       -2.94640000      -1.53500000       3.23720000      -0.08856411      -0.29442760      -0.16664989
S        3.34220000       1.34650000       3.26760000       0.11021070      -0.26855963       0.45190161
C       -2.05270000       1.43890000       7.29110000       0.21809435       0.32543474      -0.17763059
C       -3.40010000       1.03850000       7.31830000      -0.62622440      -0.09671585       0.16195819
H       -3.80210000       0.39070000       6.53380000      -0.26972297       0.01238251       0.18692113
C       -4.66950000      -0.77120000       2.16000000      -0.10929441       0.05489784       0.02344690
N        1.79360000       2.15140000       5.30910000       0.22516352       0.36724964      -0.22696416
C       -5.15190000       0.21250000       1.29390000       0.13771778       0.28801626      -0.03850744
H       -2.28050000       2.03220000       0.90600000       0.12142365       0.05086173       0.02373613
C        2.93740000       2.72610000       5.39920000      -0.09222269       0.24369685       0.37593359
C       -1.67020000       2.23060000       8.36620000       0.26105154       0.05047230      -0.07792449
N       -0.31880000       2.80860000       8.47860000       0.33772290      -0.21020457      -0.14925200
O        3.92670000       2.41240000       4.52970000       0.20242532      -0.03236399       0.19996250
O        3.09330000       2.23040000       2.06040000      -0.15061325      -0.12001604      -0.49696943
O        0.23520000       2.68800000       9.55570000      -0.00579144       0.07638299      -0.24099892
C       -4.28560000       1.21420000       0.84550000      -0.11710326      -0.12838221       0.03026091
C       -2.60670000       2.54240000       9.35280000      -0.60847569      -0.09489290       0.23390114
Cl      -4.87700000       2.44600000      -0.23570000       0.18058206      -0.19196472       0.20232111
H       -6.19080000       0.20930000       0.96230000      -0.10066348      -0.08969696      -0.07464028
O        0.10100000       3.41090000       7.50950000      -0.03237221      -0.45409182       0.06471916
N       -4.26420000       1.37210000       8.27610000       0.42690152       0.07675455      -0.15693544
N       -3.87050000       2.12670000       9.28900000      -0.37865454      -0.16200873       0.15007173
H       -2.32960000       3.15570000      10.21400000       0.05840909       0.11711943      -0.06287704
H        3.19750000       3.47930000       6.14810000       0.11137100      -0.05029052       0.19281368
H       -5.34140000      -1.55810000       2.50890000       0.03143838      -0.04460014      -0.01107248
19
Properties=species:S:1:pos:R:3:MACE_forces:R:3 Energy=0.2735529685423197 MACE_energy=-0.11846107244491577 pbc="F F F"
Au       1.13550000      -1.92930000      -0.51630000       0.00400221      -0.09680806       0.59614384
S        0.00000000       0.00000000       0.00000000       0.06744900       0.21911609      -0.07136379
C        0.00000000       0.00000000       1.85150000       0.11663174       0.04634643      -0.15018634
C        1.36770000       0.00000000       2.47500000      -0.08150008       0.16991414      -0.43140689
C        2.05330000       1.21530000       2.63140000      -0.22015119      -0.62610549      -0.11218925
C        2.04130000      -1.18510000       2.84100000       0.60328203       0.11401954       0.13283947
C        1.42800000      -2.53070000       2.69870000       0.04523097      -0.33575302      -0.06076292
C        3.35180000      -1.13570000       3.34350000      -0.10797456      -0.05748238      -0.07755078
H        0.35090000      -2.55210000       2.40920000      -0.24941811      -0.01476587      -0.18899977
H       -0.51860000       0.94470000       2.08170000      -0.30274105      -0.29906106       0.18605591
H       -0.63900000      -0.81320000       2.21610000      -0.22553581       0.24855958      -0.06265767
O        2.02570000      -3.56980000       2.88540000       0.00366540      -0.04542444      -0.01573733
C        4.00990000       0.08240000       3.49840000      -0.07713187       0.27874762      -0.09108286
C        3.34650000       1.26810000       3.13800000       0.21947691      -0.20496571       0.07757823
H        3.83200000      -2.08240000       3.60630000       0.19750006       0.40131313       0.18938601
H        3.86810000       2.21910000       3.26110000      -0.11043177      -0.07323954       0.01565659
O        5.27090000       0.18680000       3.98360000      -0.02774215      -0.12158396       0.10194520
H        5.61010000      -0.69420000       4.19070000      -0.15635049      -0.01388044      -0.21910089
H        1.55820000       2.14400000       2.33690000       0.30173883       0.41105345       0.18143322
26
Properties=species:S:1:pos:R:3:MACE_forces:R:3 Energy=0.189841541330705 MACE_energy=-0.07789662480354309 pbc="F F F"
Au       0.93100000      -2.05360000      -0.50450000       0.05207897       0.83243501       0.77434248
S        0.00000000       0.00000000       0.00000000      -0.36185664      -0.19565350       0.17249508
C        0.00000000      -0.00000000       1.77750000       0.20948045      -0.42313778       0.31649911
C        1.16590000      -0.00000000       2.57800000      -0.25033677      -0.10877566      -0.08411193
Br       2.87220000      -0.14350000       1.76390000      -1.22094226      -0.06446102      -0.04662952
C       -1.26180000       0.09560000       2.39090000      -0.08543409       0.13038820       0.40072179
C        1.04960000       0.08860000       3.97830000       0.23658264      -0.03080437      -0.33198810
H       -2.15600000       0.07800000       1.77360000       0.70684403      -0.05429839      -0.34010762
C       -1.37110000       0.21050000       3.77920000      -0.24746414       0.14478168      -0.34393305
C       -0.21020000       0.20060000       4.56350000       0.86531836       0.00117770       0.51393712
N       -2.60320000       0.32410000       4.44770000      -1.43243980      -0.17814049       0.24632868
H       -0.28300000       0.27730000       5.64850000      -0.07480501       0.05545288      -0.19810463
C        2.25810000       0.07620000       4.89910000      -0.04646876      -0.02901391       0.08053815
F        2.95850000      -1.06130000       4.78620000       0.07385098       0.09190521      -0.16941063
F        3.08870000       1.09750000       4.65020000       0.04696114      -0.15605697      -0.17871167
C       -3.84940000       0.35000000       3.90190000       0.86528265      -0.20007735      -0.42387462
H       -2.55860000       0.39390000       5.45870000       1.45546603      -0.06764475      -0.20788059
F        1.88590000       0.17970000       6.18940000      -0.32630336       0.06676817       0.22206348
O       -4.14140000       0.27290000       2.72930000      -0.10263097      -0.23595431      -0.45231867
C       -4.98090000       0.48700000       4.95400000      -0.63016319      -0.21888930      -0.30404848
F       -5.79560000      -0.57760000       4.86600000       0.28840730      -0.38490534       0.34905922
C       -5.81690000       1.77380000       4.75250000      -0.10968615       0.00747797      -0.01313826
F       -4.47520000       0.53280000       6.21960000       0.74543893      -1.06044436       0.52862245
F       -4.98690000       2.82470000       4.70490000      -0.40483361       1.15401983      -0.25458217
F       -6.51480000       1.71900000       3.62740000       0.13803011       0.53428727      -0.30664337
F       -6.65520000       1.93810000       5.77500000      -0.39037722       0.38956374       0.05087566
17
Properties=species:S:1:pos:R:3:MACE_forces:R:3 Energy=1.5689772285097765 MACE_energy=1.1984896659851074 pbc="F F F"
Au       0.50210000       2.21190000      -0.43180000       0.09138975      -0.20794341       0.47957632
S        0.00000000       0.00000000       0.00000000       0.49764198      -0.12266761      -0.40110195
C       -0.00000000       0.00000000       1.77730000       0.50541133       0.15721281       0.65946841
C        1.19240000      -0.00000000       2.52850000      -0.34033930       0.14180741       0.53049690
C        2.50650000       0.07730000       1.80110000      -0.11665121       0.27295431      -0.34313887
C        1.17190000      -0.04780000       3.92670000       0.25043198       0.06098072      -0.56874287
C       -0.05760000      -0.11440000       4.60850000      -0.12542321       0.03913869      -0.11077160
C       -1.24500000      -0.16770000       3.86680000       0.37190095      -0.25922191       0.69957650
Cl       2.69170000      -0.11350000       4.77270000      -0.86813283       0.21037966      -0.30007464
O        3.04600000       1.07320000       1.44850000      -0.45534149      -0.20295821       0.32807693
C       -1.21170000      -0.09240000       2.48120000       0.21858534      -0.01203889       0.06171271
F       -2.36140000      -0.10110000       1.81550000      -0.20872648       0.23847023      -0.37829173
Cl       3.19870000      -1.53960000       1.49590000      -0.15302393      -0.30439758      -0.23790453
C       -0.23000000      -0.17100000       6.09390000      -0.25984490      -0.11763895      -0.08137625
H       -2.20640000      -0.24860000       4.37540000       0.16559586       0.05588105      -0.20446815
Cl       0.64440000       1.11050000       6.98560000       0.08028348       0.20658334      -0.34781706
O       -0.96370000      -0.91710000       6.65710000       0.34624273      -0.15654163       0.21478000
27
Properties=species:S:1:pos:R:3:MACE_forces:R:3 Energy=5.349094305696012 MACE_energy=-0.7855226397514343 pbc="F F F"
Au       1.23010000      -1.91250000      -0.43760000      -0.02942324       0.24982543       0.31822193
S        0.00000000       0.00000000       0.00000000      -0.16203080      -0.48803917      -0.48519287
C       -0.00000000      -0.00000000       1.82410000       0.26407510       0.06074058       0.07236435
C       -0.84680000      -1.12030000       2.44050000       0.33915222      -0.32021230      -0.22769727
H       -0.42980000      -2.08430000       2.09540000       0.00941037       0.02958509       0.00699875
H       -1.87310000      -1.07290000       2.04900000       0.05812355       0.23610285      -0.05390666
C        1.44360000       0.00000000       2.45160000       0.00690539      -0.05110362      -0.05824652