25
Properties=species:S:1:pos:R:3:MACE_forces:R:3 Energy=-0.4775343029160025 MACE_energy=0.7548083662986755 pbc="F F F"
C        5.21020000       2.24450000      -1.57850000       0.10904230       0.03844262      -0.16160384
C        4.20290000       2.56220000      -0.49560000       0.06148861       0.55084467      -0.05474785
O        3.76590000       1.31740000       0.07960000      -0.15265223       0.54032928      -0.12810355
C        2.86590000       1.39910000       1.06820000       0.04899925       0.30649137      -0.30272555
O        2.40460000       2.43040000       1.48470000      -0.13367729       1.24004102       0.31553036
C        2.54040000       0.01270000       1.61200000      -0.59825337      -0.09531067       0.00129946
C        1.26510000       0.00000000       2.40490000      -0.35930005      -0.06649689       0.27083430
C       -0.00000000       0.00000000       1.77200000      -0.07635388       0.00811500       1.32232118
S        0.00000000       0.00000000       0.00000000       0.85705930      -0.41898909      -1.44715703
C       -1.14320000       0.01320000       2.58250000       0.04797515       0.09669039       0.27282590
C       -0.99840000       0.03310000       3.96980000       0.08490831       0.17420852      -0.42506152
N        0.17900000       0.04290000       4.58720000      -0.50723922      -0.10206993      -0.07753114
C        1.27040000       0.02960000       3.81300000       0.37549785      -0.25491381      -0.12388299
C        2.54070000       0.04770000       4.50670000       0.14554049      -0.06942744      -0.25205061
N        3.57320000       0.05740000       5.03510000      -0.10898848       0.00044503       0.28130117
H        4.75950000       1.61620000      -2.36200000       0.37784144      -0.01417758      -0.26602745
H        5.56810000       3.17580000      -2.04390000       0.18853801      -0.26295102      -0.20451817
H        6.07760000       1.70920000      -1.16330000       0.28790152      -0.08864994      -0.36050719
H        3.32320000       3.09650000      -0.88870000      -0.30671468      -0.52257824       0.19209565
H        4.63230000       3.19000000       0.30150000      -0.31537324      -0.65942454       0.55235112
H        3.39390000      -0.28920000       2.23880000       0.34839192      -0.24887881       0.50485951
H        2.50200000      -0.69680000       0.77120000      -0.83470052       0.06010756      -0.42990625
Au      -2.20660000      -0.08920000      -0.63800000       0.32779539      -0.01592787       0.74296016
H       -2.13880000       0.01230000       2.13610000      -0.33767277      -0.05143351      -1.10375428
H       -1.88810000       0.04440000       4.60890000       0.46994630      -0.14448613       0.88119847
48
Properties=species:S:1:pos:R:3:MACE_forces:R:3 Energy=3.5567862618807484 MACE_energy=3.802560806274414 pbc="F F F"
C        1.60800000      -0.03160000      10.53490000       0.45653605       0.06425809       0.04592121
C        1.29440000      -0.35530000       9.11280000      -0.17736836      -0.19983774       0.18920599
C        0.26590000       0.05500000       8.30890000      -0.20890695       0.20892635      -0.09847140
C        0.49460000      -0.45090000       6.97590000       0.29585582      -0.19350807       0.17721096
C       -0.40420000      -0.23680000       5.88970000       0.66853756       0.10339080      -0.32936782
C       -0.21460000      -0.18770000       4.52590000      -0.21858996       0.58309823       0.02382115
C        1.09620000      -0.01330000       3.84650000      -0.54164529       0.23875825      -1.37150800
O        2.14450000       0.14970000       4.45050000       0.93439293      -0.17427753      -0.06973979
N        1.09750000       0.00000000       2.44920000      -0.84026444       0.20269294       0.31313375
C       -0.00000000      -0.00000000       1.77190000       0.17518523       0.01210348      -0.39563107
S        0.00000000       0.00000000       0.00000000       0.12757853       0.07751998      -0.38379160
N       -1.26860000      -0.00810000       2.32900000       0.89043272      -0.35665694       0.83500385
C       -1.45750000      -0.08470000       3.73330000      -0.07923982       0.26251298       0.03458904
O       -2.58800000      -0.07770000       4.17830000      -0.30826265       0.02039025       0.31103697
C       -2.43280000       0.15090000       1.51520000       0.02427319       0.25472656      -0.58422995
C       -3.13190000      -0.96380000       1.04820000      -0.16472958      -0.41627190      -0.38482741
C       -4.26820000      -0.81400000       0.25730000      -0.50495791       0.22668585      -0.15165475
C       -4.70720000       0.47500000      -0.05930000       0.23961814      -0.06345726       0.26771164
Cl      -6.12590000       0.68080000      -1.05090000      -0.28188080       0.13224399      -0.25279427
C       -4.03280000       1.60690000       0.40460000      -0.02705276       0.29317665       0.05517331
C       -2.89780000       1.43700000       1.19700000       0.31710726       0.28781822       0.23802519
Cl      -2.04350000       2.83000000       1.78620000      -0.09819664      -0.32101312       0.04084133
C        1.66810000      -1.22510000       7.03090000       0.06908949      -0.26664329       0.34096062
C        2.26940000      -2.13840000       6.02500000      -0.11213790       0.50821579       0.00854450
N        2.13780000      -1.15340000       8.32060000       0.54911292      -0.04379445      -0.00859544
C        3.33240000      -1.77130000       8.77760000       0.17757803       0.27695405      -0.68316150
C        4.56330000      -1.40680000       8.21940000       0.93221939      -0.05105207       0.25025716
C        5.73310000      -2.01530000       8.66650000       0.04298799      -0.07499319       0.17468575
C        5.69060000      -2.97920000       9.67990000      -0.10197540      -0.19966179       0.26633084
Cl       7.16730000      -3.70920000      10.22510000      -0.14327560       0.29546160      -0.27620173
C        4.45390000      -3.34170000      10.24070000       0.12554291      -0.27604583       0.14111845
Cl       4.35550000      -4.53920000      11.49410000       0.04051164       0.32329983      -0.35430539
C        3.27880000      -2.74280000       9.78030000       0.16787097      -0.50197333       0.37259495
H        0.89400000       0.71770000      10.90270000       0.21364835      -0.15982167       0.19097812
H        2.62440000       0.38180000      10.64420000      -0.37944517      -0.08738295       0.04400377
H        1.54420000      -0.90940000      11.19890000      -0.19354117       0.41292480       0.03198598
H       -0.55150000       0.70810000       8.60810000      -0.75531697       0.65120459       0.37641767
H       -1.44560000      -0.06450000       6.18710000      -1.14591634      -0.33508107      -0.57208812
Au       2.30350000       0.10360000      -0.25990000      -0.09026407      -0.02909239       1.05349660
H       -2.76640000      -1.95720000       1.31170000       0.34835178      -0.21470714       0.49332094
H       -4.81400000      -1.68200000      -0.11250000       0.24652453      -0.73321652       0.19288987
H       -4.38470000       2.60710000       0.15560000      -0.39904046       0.65843236      -0.25483418
H        3.04320000      -1.62630000       5.43240000       0.05961166      -0.28710338       0.33827311
H        1.49870000      -2.45860000       5.31010000       0.14774683      -1.57339168       0.46203363
H        2.70360000      -3.02840000       6.50440000      -0.31893879      -0.00327552      -1.01485431
H        4.59620000      -0.64400000       7.44030000       0.77163512       0.05875245       0.40260142
H        6.69960000      -1.74210000       8.24130000      -0.40765092       0.11909197      -0.14338759
H        2.32140000      -3.04840000      10.20110000      -0.52335125       0.28961882      -0.34272346
37
Properties=species:S:1:pos:R:3:MACE_forces:R:3 Energy=2.122016571456058 MACE_energy=1.9063308238983154 pbc="F F F"
F       -4.71450000       2.34050000      -0.05670000       0.28900307      -0.30011779       0.16424312
C       -4.15420000       1.18300000       0.31250000      -0.64597028       0.25489444      -0.47810736
C       -4.71530000      -0.01490000      -0.12610000       0.09401022      -0.29373950       0.18078320
C       -4.12610000      -1.21920000       0.26540000      -0.09328726       0.04329900       0.06662522
C       -2.99310000      -1.22220000       1.08070000      -0.33981019       0.43575883      -0.26219311
C       -2.44870000      -0.00510000       1.49750000      -0.55240083      -0.04957585      -0.23305111
C       -3.02510000       1.21080000       1.12450000       0.67592716      -0.75756097       0.21109581
N       -1.27390000       0.00140000       2.33150000       0.72893214      -0.15931857       0.16770050
C       -0.00000000       0.00000000       1.76800000       0.34433955       0.02723324      -0.79181325
S        0.00000000       0.00000000       0.00000000      -0.32493255       0.02633775       0.22664967
N        1.09950000       0.00000000       2.44220000      -0.51270139       0.02642511      -0.88619781
C        1.09590000       0.00140000       3.83520000       0.29595906       0.04659966      -0.08782950
O        2.13940000      -0.00240000       4.45760000       0.10331495      -0.00108240      -0.35480425
C       -0.24110000       0.00890000       4.52920000      -0.01588668      -0.01525731      -0.25044832
C       -0.19510000       0.01500000       5.90150000       0.45399356       0.03922322       0.19722688
C       -1.17940000       0.02360000       6.93880000      -0.53467858      -0.00341248      -0.30991691
N       -0.82270000       0.02840000       8.22820000      -0.26394203       0.00223650      -0.79423249
C       -1.99020000       0.03680000       8.92890000      -0.12408477      -0.00514160      -0.03852642
C       -2.21520000       0.04460000      10.32290000      -0.75320721       0.00425063      -0.01316032
C       -3.52660000       0.05260000      10.76810000       0.17731589      -0.00031057      -0.19037938
C       -4.61930000       0.05310000       9.85990000       0.02368704      -0.00043623      -0.05176635
C       -4.43260000       0.04550000       8.48410000       0.44828391      -0.00317816       0.35668945
C       -3.10460000       0.03730000       8.02720000      -0.01677811       0.01986421       0.65409911
N       -2.55130000       0.02870000       6.78180000       0.53189749       0.04432772       1.38793981
C       -1.46710000       0.00800000       3.72430000      -0.76876485       0.00897105       0.19410715
O       -2.62010000       0.01210000       4.14340000       0.45703375      -0.14450482      -0.69053912
H       -5.60040000       0.01270000      -0.76360000       0.40255243       0.24667871       0.27812898
H       -4.55660000      -2.16480000      -0.07000000       0.17985278      -0.13587086       0.02473681
H       -2.52280000      -2.15600000       1.39070000       0.10646141       0.30717176       0.07140326
H       -2.60400000       2.16150000       1.45130000      -0.06596895       0.40220422       0.01357989
Au       2.30830000       0.01200000      -0.26060000      -0.29818657      -0.02364413       1.62614620
H        0.82140000       0.01320000       6.30570000      -0.08633006      -0.04250809      -0.02862593
H       -1.36890000       0.04440000      11.01180000       0.49611688      -0.00030202       0.32249492
H       -3.73430000       0.05890000      11.84040000      -0.14607556       0.00079056       0.10081421
H       -5.63620000       0.05970000      10.25930000      -0.05073915       0.00013239       0.17740653
H       -5.27680000       0.04610000       7.79230000      -0.38637945      -0.00380476      -0.28399193
H       -2.97590000       0.02540000       5.84710000       0.17144309       0.00336689      -0.67628723
20
Properties=species:S:1:pos:R:3:MACE_forces:R:3 Energy=0.2504669647107284 MACE_energy=0.5376005172729492 pbc="F F F"
F        4.24940000      -0.80350000       5.25610000       0.12183331      -0.01507165      -0.17180331
C        3.45010000      -0.62010000       4.20480000      -0.20365077       0.05138581      -0.08210184
O        2.35020000       0.06730000       4.64950000      -0.49395221       0.11387027       0.08427737
C        1.21840000       0.06610000       3.87680000      -0.62861484       0.06755278       0.20380123
C        1.21930000       0.00000000       2.48670000      -0.46518216       0.19797269       0.50353324
C       -0.00000000       0.00000000       1.78250000       0.18898004      -0.26430112       0.36909723
S        0.00000000       0.00000000       0.00000000       0.16577549       0.00078669      -0.44095010
C       -1.20100000       0.09960000       2.48610000       0.00525827       0.29753262       0.50950837
C       -1.21800000       0.19100000       3.88830000       0.63126099      -0.13593134       0.02090311
C        0.00080000       0.16550000       4.57840000       0.61743748      -0.21098176      -0.29116637
F        0.06600000       0.22950000       5.89970000       0.34470278      -0.08512156      -0.06376141
C       -2.56400000       0.29570000       4.53440000      -0.57583392       0.04399230      -0.04856257
O       -3.59780000       0.28490000       3.90890000       0.51583552      -0.06001382      -0.36706546
O       -2.52630000       0.40530000       5.87060000       0.46973169      -0.00191505       0.11543745
F        4.13110000       0.11050000       3.28760000       0.48794782      -0.08383122       0.03537238
H        3.18160000      -1.59040000       3.74730000       0.00576666      -0.06243638       0.08174610
H        2.15930000      -0.03280000       1.93730000      -0.37620968       0.15902197      -0.43626609
Au       0.08030000      -2.24510000      -0.50910000       0.00908364      -0.08676919      -0.01821166
H       -2.15630000       0.10980000       1.96170000       0.02473156      -0.06408609      -0.44871148
H       -3.45120000       0.46790000       6.16510000      -0.84490156       0.13834411       0.44492388
30
Properties=species:S:1:pos:R:3:MACE_forces:R:3 Energy=1.0883750026175885 MACE_energy=1.5111206769943237 pbc="F F F"
C        7.17580000      -1.46400000       6.86860000      -0.18223897       0.28572488      -0.17477223
C        5.68340000      -1.38340000       6.69690000      -0.08135659       0.28260761      -0.28133595
C        4.85230000      -2.36930000       7.05380000       0.36497834       0.03349059      -0.06994200
C        5.20050000      -0.09200000       6.06800000      -0.06886098      -0.02341868       0.15838227
N        3.76660000       0.07290000       6.03560000      -0.04891930       0.24847572       0.15775111
C        3.04800000       0.02230000       4.88090000       0.60387999      -0.09230397      -0.89190423
O        3.58270000      -0.07710000       3.77730000      -0.47308442       0.15845713       0.60317290
C        1.55960000       0.09920000       4.99810000       0.04120332      -0.01467601      -0.88810480
C        0.82940000       0.18920000       6.19140000      -0.72840738      -0.18428795      -0.59175432
C       -0.57290000       0.25290000       6.17610000       0.45871818       0.01994196       0.41649866
F       -1.20360000       0.33680000       7.36030000       0.15605205      -0.05622562      -0.35216680
C       -1.32770000       0.23300000       5.01050000       0.53126663      -0.04497713       0.00804311
C       -0.62080000       0.14090000       3.80180000      -0.30967304       0.06325611      -0.38056982
N       -1.08100000       0.07880000       2.50630000       0.41148353       0.49004835       0.12654775
C        0.00000000      -0.00000000       1.75430000      -0.04719877       0.00669584       1.19528198
S        0.00000000       0.00000000       0.00000000      -0.63179076      -0.68174320      -2.51898599
N        1.16420000      -0.00000000       2.49650000      -0.20257460      -1.00844932       0.73385316
C        0.80330000       0.07840000       3.81450000       0.36692318       0.07959522       0.06332945
H        7.48500000      -2.42500000       7.30280000       0.41751575       0.10569638       0.00490041
H        7.68940000      -1.34180000       5.89880000       0.17754421      -0.24034113       0.33289033
H        7.54430000      -0.65390000       7.52230000       0.27007598      -0.40865570       0.14622642
H        3.77320000      -2.29150000       6.90280000      -0.20293173      -0.39277297       0.22464132
H        5.22990000      -3.29460000       7.49610000      -0.36248368      -0.15152496       0.06737728
H        5.54730000      -0.03790000       5.02390000      -0.33969507       0.05111200      -0.14557695
H        5.66450000       0.76130000       6.59720000      -0.00527951       0.07872141      -0.05583166
H        3.27740000       0.12010000       6.91900000      -1.07635415       0.32316524      -0.01978618
H        1.31010000       0.21250000       7.17070000       0.77225560      -0.05112984      -0.27766567
H       -2.41600000       0.28350000       5.04180000      -0.48460728       0.08264215       0.86825532
Au       0.92230000      -2.06520000      -0.46350000       0.16255131       0.81300056       0.26236629
H        2.13050000      -0.04430000       2.18600000       0.51100814       0.22787526       1.27887869
41
Properties=species:S:1:pos:R:3:MACE_forces:R:3 Energy=0.5316791766390302 MACE_energy=0.5262842774391174 pbc="F F F"
C        4.24640000       1.93080000       5.84240000       0.37662157       0.31738085      -0.41059437
N        4.35370000       0.68370000       6.58990000      -0.76022786      -0.97111225       0.61013752
C        5.66090000       0.47770000       7.25500000      -0.37692261      -0.24019963       0.23590784
C        5.70500000       1.11600000       8.63840000       0.91301829       0.01608571      -0.94479954
C        5.13870000       0.51750000       9.77560000      -0.06059295      -0.10177472       0.74460638
C        5.20400000       1.13650000      11.02520000      -0.04565661       0.03515735       0.08725037
C        5.84130000       2.37310000      11.16690000       0.04364053       0.10511163       0.28722605
C        6.41020000       2.99270000      10.05350000      -0.15879121       0.02530569       0.37036356
C        6.32820000       2.35550000       8.81890000      -0.10137932      -0.24109119      -0.17078875
F        6.87770000       2.97590000       7.74920000       0.35492608       0.38929296       0.36370641
C        6.13720000      -0.97620000       7.22880000       0.04856074      -0.11367773       0.06366815
C        3.27820000      -0.10460000       6.90260000       0.49121892      -0.05534200       0.65707469
O        3.28130000      -0.91550000       7.82120000       0.68288100       0.46717688      -0.85122526
C        2.04870000       0.00200000       6.03480000       0.16525535      -0.03240694       0.23279025
C        0.78930000      -0.03460000       6.67070000      -0.37516177       0.06861810      -0.16334164
C       -0.37020000      -0.02210000       5.91210000       0.17298473       0.18137085      -0.20262408
C       -0.29550000      -0.00430000       4.50950000       0.32431173       0.09600776      -0.22988060
C        0.96210000       0.00040000       3.85640000      -0.42115819       0.03311597      -0.51382899
C        2.13000000       0.00940000       4.64540000      -0.48406395      -0.36465979      -0.07089101
N        1.08420000      -0.00000000       2.47820000      -0.94344705       0.07839150       0.18674523
C        0.00000000      -0.00000000       1.77070000      -0.23853174       0.06383407      -0.34383631
N       -1.26040000       0.00160000       2.32240000       0.58166081       0.01665957       1.10912204
C       -1.52330000      -0.00000000       3.70260000      -0.15779991      -0.03644291      -0.23776162
O       -2.66550000       0.00160000       4.11620000      -0.01157923      -0.01935223       0.08321868
S        0.00000000       0.00000000       0.00000000      -0.35328484      -0.02301275      -0.25982022
H        3.19870000       2.18600000       5.65410000       0.31805819      -0.53049362       0.61337125
H        4.69900000       2.74870000       6.42430000      -0.05107330       0.17245185      -0.05020986
H        4.77370000       1.87330000       4.87440000       0.32403460       0.25970024      -0.06396954
H        6.36400000       1.04510000       6.63150000      -0.85715038      -0.19130279       0.24592155
H        4.62040000      -0.43320000       9.65570000       0.16379040       0.45301694      -0.02666320
H        4.75250000       0.65100000      11.89300000      -0.13157929      -0.18238020      -0.11017466
H        5.89540000       2.85930000      12.14370000      -0.02385294       0.14829789       0.15033010
H        6.91490000       3.95800000      10.12050000      -0.07266659      -0.23298648      -0.72236139
H        6.11280000      -1.35670000       6.19580000      -0.19205834       0.24122117      -0.17710449
H        5.51460000      -1.62990000       7.84850000      -0.45369223       0.28710270      -0.61933136
H        7.17570000      -1.02030000       7.58960000      -0.06827794       0.27949241       0.06597585
H        0.75190000      -0.08020000       7.75990000      -0.10432272       0.10999534      -0.00260836
H       -1.35870000      -0.03440000       6.37480000       0.33156565      -0.17647545       0.38775691
H        3.09270000       0.00830000       4.13320000       0.62700635      -0.32347882       0.23849766
H       -2.08200000       0.00070000       1.72360000       0.32784986      -0.02411456      -0.76550597
Au       2.28950000      -0.03250000      -0.32670000       0.19588627       0.01551655       0.20365079
21
Properties=species:S:1:pos:R:3:MACE_forces:R:3 Energy=3.3805530797753094 MACE_energy=3.506593942642212 pbc="F F F"
F        3.25830000      -0.00160000       9.69690000       0.50480461       0.00004641      -0.02848080
C        2.17470000      -0.00140000       8.90640000      -0.48959249       0.00008927      -0.36533257
C        0.90840000      -0.00170000       9.48710000      -0.28780133       0.00005339      -0.18233870
C       -0.20680000      -0.00150000       8.64450000       0.55372882       0.00008961      -0.08643319
C       -0.06770000      -0.00100000       7.25700000       0.36734104      -0.00002887       0.04625782
C        1.21860000      -0.00070000       6.67440000      -1.38808894      -0.00023452       0.32074350
C        1.51340000      -0.00030000       5.24400000      -0.08181215       0.00013399      -0.51145434
C        0.76410000      -0.00020000       4.10890000       0.30222616      -0.00019525       0.81957138
S        1.59010000      -0.00000000       2.52990000       0.34254843       0.00004190       1.72621751
C        0.00000000       0.00000000       1.73850000      -0.73464489      -0.00003745      -0.18486136
S        0.00000000       0.00000000       0.00000000      -0.81073767       0.00002265      -2.37166286
N       -1.04020000      -0.00010000       2.50360000       0.47485447       0.00018087      -1.87266707
C       -0.73010000      -0.00010000       3.86970000       0.37196034      -0.00008509      -0.01530283
O       -1.58170000      -0.00010000       4.73400000      -0.18700728      -0.00001439      -0.41396964
C        2.34540000      -0.00090000       7.53000000       0.08790231      -0.00015812       0.39000928
H        0.81510000      -0.00210000      10.57450000      -0.32133609       0.00009124      -0.34452471
H       -1.20800000      -0.00180000       9.08120000       0.24888296      -0.00002017       0.09194300
H       -0.94090000      -0.00090000       6.60940000      -0.20607932      -0.00000682       0.30086756
H        2.59340000      -0.00020000       5.05730000       0.63882321       0.00006113       0.53114384
Au      -2.30150000      -0.00010000      -0.29940000       0.36647624      -0.00002351       2.15866208
H        3.35990000      -0.00070000       7.12720000       0.24755125      -0.00000627      -0.00838809
43
Properties=species:S:1:pos:R:3:MACE_forces:R:3 Energy=0.36918266192797033 MACE_energy=-0.024236738681793213 pbc="F F F"
S        0.00000000       0.00000000       0.00000000       0.30578640       0.06780715       0.38762480
C        0.00000000       0.00000000       1.78180000      -0.17373364       0.04324344      -0.55215871
N       -1.09480000      -0.00830000       2.46320000      -0.33185756      -0.12361674      -1.40263748
C       -1.08690000       0.01450000       3.87100000       0.15993208      -0.02945750       0.17152178
O       -2.12840000       0.03480000       4.50880000       0.00139195       0.05357512      -0.36002553
C        0.22830000       0.04330000       4.50610000       0.36180761      -0.37426442      -0.00693828
C        0.32060000       0.20420000       5.99790000      -0.07693511      -0.25201622      -0.32563400
N        1.67370000       0.57610000       6.38800000      -0.00665316      -0.68102360      -1.33035231
C        2.63800000      -0.28460000       5.73680000      -0.16048616       0.16005936       0.20911165
N        2.62430000      -0.10480000       4.29080000      -1.69495106      -0.26780409       0.72141904
C        1.35920000       0.00410000       3.74530000       1.71005571       0.17250639       1.24150634
N        1.26530000       0.00000000       2.35000000      -1.36970723       0.06977192       0.48591429
C        2.45390000      -0.02840000       1.54650000       0.20436957       0.00299103       0.20085099
C        3.08570000      -1.24600000       1.27830000      -0.02943237       0.01397155      -0.12256596
C        4.24450000      -1.25640000       0.50170000       0.04341238       0.24469306      -0.04179839
C        4.77410000      -0.06580000      -0.00280000      -0.02662391       0.19196475      -0.18612111
C        4.13280000       1.14330000       0.28070000       0.09173007      -0.01014450       0.01932872
Cl       4.78590000       2.63590000      -0.34200000      -0.01563931       0.25191033      -0.06337985
C        2.97300000       1.17470000       1.05810000       0.21166570       0.01048955       0.04485308
C        1.85430000       0.79050000       7.81500000       0.30615470       0.05735132      -0.61182302
C        2.00430000      -0.44370000       8.73580000       0.34076178      -0.28901315       0.44079310
C        2.49260000       0.18410000      10.04290000      -0.49026078      -0.29246578       0.40163559
C        3.53160000       1.23060000       9.58280000       0.43411979       0.31887171       0.16185620
C        3.07550000       1.67770000       8.17000000       0.60634422       0.39673001      -0.29491988
Au      -2.31360000      -0.00580000      -0.21150000       0.08751002       0.01186575       1.22251797
H       -0.03380000      -0.72630000       6.49810000      -0.63593686      -0.30900729      -0.50856030
H       -0.38410000       0.99400000       6.30420000       0.58666646      -0.29851198      -0.02045326
H        3.65080000      -0.06900000       6.10120000      -0.03877876      -0.21817037      -0.46082973
H        2.43610000      -1.36040000       5.93160000      -0.34726551       0.50417566       0.04250908
H        3.30820000       0.55300000       3.92510000       0.67988026       0.53645766       0.15037370
H        2.66070000      -2.16750000       1.67690000       0.20271946      -0.19047204       0.07109642
H        4.74360000      -2.20240000       0.28200000      -0.10612638      -0.08914516       0.00427216
H        5.67780000      -0.06670000      -0.61350000       0.19290547      -0.57939434       0.08879168
H        2.46740000       2.11710000       1.26830000      -0.60919476      -0.08108622       0.23248890
H        0.94910000       1.32420000       8.14930000       0.04925600       0.33769915      -0.16438372
H        2.77570000      -1.12670000       8.33860000      -0.24701913       0.39867371      -0.82821262
H        1.07320000      -1.02070000       8.84140000      -0.41822633       0.55357713      -0.36388987
H        1.64730000       0.68530000      10.54490000      -0.01234640      -0.32395467       0.46582335
H        2.90430000      -0.54590000      10.75620000       0.27890313      -0.07000075       0.35675132
H        3.61450000       2.07100000      10.28800000       0.01733384      -0.07645646       0.03383971
H        4.52870000       0.76440000       9.53040000      -0.01741657       0.06947006       0.10289333
H        2.80400000       2.74230000       8.12330000      -0.12194967      -0.15295322       0.29462564
H        3.87990000       1.53440000       7.43240000       0.05783382       0.24110278       0.09228488
22
Properties=species:S:1:pos:R:3:MACE_forces:R:3 Energy=0.3550844905847789 MACE_energy=0.26742488145828247 pbc="F F F"
C       -0.45210000       0.80650000       6.72440000       0.03491378       0.23429783       0.40470248
O        0.03630000      -0.29550000       5.95050000       0.37897831      -0.10069346      -0.27816558
C        0.01110000      -0.16430000       4.60400000      -0.63510019      -0.03391719       0.35991913
C       -1.19810000      -0.17340000       3.88390000       0.14515525       0.22937119       0.12448954
O       -2.39160000      -0.23520000       4.57150000       0.01355856      -0.22300436       0.39180475
C       -2.71480000      -1.45570000       5.12800000       0.19595854       0.36461091      -0.08002458
F       -3.62120000      -1.21560000       6.08140000       0.21082669      -0.27816358      -0.30102083
F       -3.28260000      -2.24710000       4.19270000       0.10551130       0.13414428       0.23364452
C       -1.20750000      -0.09730000       2.49580000       0.30637020      -0.17430776       0.02411178
C       -0.00000000      -0.00000000       1.78270000      -0.03220394       0.29495683       0.48735878