17
Properties=species:S:1:pos:R:3:MACE_forces:R:3 Energy=0.0932393017589173 MACE_energy=-0.4119623899459839 pbc="F F F"
Au       2.13410000       0.83920000      -0.30000000       0.19532658      -0.01430870       0.02826237
S        0.00000000       0.00000000       0.00000000      -0.07441249      -0.07266510       0.10202628
C        0.00000000       0.00000000       1.74850000       0.05316840       0.02022701       0.44334620
N       -1.11850000       0.00250000       2.51650000       0.47675738      -0.57934141      -0.07666807
N        1.04480000       0.00000000       2.56990000      -0.53920329       0.34874281      -0.16659211
N       -0.73710000      -0.01320000       3.81590000       0.74197108       0.12673832      -0.10116260
N        0.54730000      -0.00610000       3.82190000      -0.46082693       0.18853052      -0.33061779
C       -2.52780000       0.03010000       2.16430000      -0.31200585       0.13975887       0.47962415
H       -2.58970000       0.22160000       1.08520000       0.42752600       0.01413026       0.10069805
H       -2.98910000       0.87140000       2.70050000       0.19762854       0.44317713      -0.00696521
C       -3.23030000      -1.27090000       2.52990000      -0.05149514       0.31842691      -0.42613727
C       -2.77570000      -2.42970000       1.67100000      -0.13213481      -0.52110291      -0.31026876
H       -4.32040000      -1.16160000       2.40270000      -0.09460753      -0.40487409       0.69084662
H       -3.06370000      -1.51670000       3.58980000      -0.59288061       0.02784628      -0.43673560
O       -2.08830000      -2.32950000       0.68480000       0.24488932       0.47290611      -0.18530633
O       -3.24330000      -3.60270000       2.12590000       0.27073297       0.26087183       0.23479672
H       -2.91910000      -4.29350000       1.52190000      -0.35043341      -0.76906395      -0.03914677
38
Properties=species:S:1:pos:R:3:MACE_forces:R:3 Energy=0.32666155485403975 MACE_energy=0.6131095886230469 pbc="F F F"
Au       1.11590000      -1.94450000      -0.49990000      -0.72298592       1.07423186      -0.02837784
S        0.00000000       0.00000000       0.00000000       1.14556170      -0.95599556       0.13079733
C        0.00000000       0.00000000       1.83020000      -0.35214740      -0.51758808      -0.72407496
H       -0.58190000      -0.83870000       2.23010000      -0.69234008       0.26508412       0.10080382
C        1.38710000      -0.00000000       2.47610000       0.44304162      -0.26159424       0.73343742
H       -0.55850000       0.91790000       2.08110000      -0.48941398      -0.83474302       0.25336468
H        1.85250000      -0.96310000       2.20240000       1.06595802      -0.08807153       1.50984848
C        2.32570000       1.11540000       2.00440000      -0.48345733       0.40381929       0.27442381
C        1.25850000      -0.05850000       3.99940000      -0.45314905      -0.45020425       1.05946207
O        0.39770000      -0.71500000       4.55490000       0.35994291       0.71292621      -0.59477419
N        2.20420000       0.63910000       4.70520000      -0.78319269       0.08820429      -2.43759632
H        2.49020000       1.00330000       0.92410000      -0.34204939       1.26460862      -0.76907170
C        3.67200000       1.06180000       2.79080000       0.39295846       0.08568239       0.26927179
C        1.79320000       2.52190000       2.34180000       0.35601521      -0.96148145      -0.11667687
H        0.70330000       2.63730000       2.29520000       0.67879403       1.26220453      -0.24908867
C        3.18730000       1.59940000       4.16620000      -0.52421016      -0.08535621       0.60258877
C        2.32440000       2.81450000       3.75910000       0.41839439       0.07606961       0.50444186
H        2.08770000       0.62620000       5.71450000      -0.03204852      -0.14700207       0.73535198
O        2.10200000       3.78720000       4.42420000      -0.31232566      -0.41390336       0.32999742
C        4.17660000       1.92660000       5.23820000      -0.44901228      -0.31539094      -0.37652421
C        4.22800000      -0.33390000       2.83800000       0.42735457       0.00920135       0.08259567
C        2.37520000       3.57790000       1.42260000      -0.03432083      -0.55321944      -1.31866360
C        4.73690000       1.95490000       2.06260000       0.89705640       0.59431666       0.19126266
H        5.04890000       1.33710000       1.20500000      -0.44180331       0.48432976       0.40560159
S        4.15640000       3.51690000       1.22300000       0.89900404      -0.27862233       0.09706125
H        4.12830000      -0.88300000       1.89490000      -0.73908770       0.21774735      -1.07761908
O        1.74150000       4.43710000       0.87630000      -0.35342729      -0.23101628       0.21104398
C        4.98580000       1.04580000       5.83830000       0.72700167       0.05118734      -0.23024194
C        5.97440000       2.21830000       2.88120000       0.02614658      -0.20589773      -0.38265958
H        6.44770000       1.30370000       3.25280000      -0.47386903      -0.59727526       0.36936247
C        6.53650000       3.39700000       3.15370000      -0.04910417      -0.02379725      -0.40744144
H        6.10510000       4.34090000       2.81270000      -0.43289804      -0.05364112      -0.01685828
H        4.16500000       2.95930000       5.59470000       0.44855574       0.33162817       1.01759231
H        5.60360000       1.36390000       6.68390000      -0.54903507      -0.03308957      -0.08051424
C        4.83220000      -1.00560000       3.83020000       0.01379050      -0.11174776       0.31758332
H        5.14860000      -2.03470000       3.62790000       0.24875313      -0.61364609       0.13687269
S        5.29080000      -0.64620000       5.48470000       0.12703882       0.81854016      -0.52043760
H        7.45260000       3.44730000       3.74730000       0.03451025      -0.00649839      -0.00214434
31
Properties=species:S:1:pos:R:3:MACE_forces:R:3 Energy=3.833322836678035 MACE_energy=3.7701215744018555 pbc="F F F"
Au       1.52090000       1.65050000      -0.54200000      -0.15855053      -0.57641119       0.35789952
S        0.00000000       0.00000000       0.00000000      -0.49069023       0.35019493      -0.04805840
C       -0.00000000       0.00000000       1.77400000       1.63216543       0.12006384       0.57396579
C        1.19800000       0.00000000       2.51460000      -0.38387921      -0.09587493      -0.22593796
C       -1.19620000      -0.05240000       2.53210000       0.32102126      -0.04312082      -0.20180210
C       -2.51600000      -0.16490000       1.85630000      -0.09463805       0.01228276      -0.99285454
C       -1.17570000      -0.06020000       3.93580000      -0.32310739      -0.28565621      -0.45508355
C        0.03150000      -0.03910000       4.63450000       0.10738537       0.39299321       0.83272696
H       -2.12650000      -0.08190000       4.46130000      -0.32950324       0.04811762       0.51407188
F        2.36490000       0.01800000       1.86850000      -0.25253081       0.04607230      -0.60264087
O       -2.71140000      -0.60550000       0.75790000      -0.24371639      -0.11797059      -0.86416757
O       -3.52180000       0.32470000       2.66370000      -0.47181150       0.52193993       0.64201480
C        1.24120000      -0.01640000       3.90600000      -0.38469759      -0.16558258      -0.65258020
O        0.13880000      -0.01500000       5.97270000      -0.43476108       0.12826282      -0.17340741
C        2.56990000       0.01670000       4.58980000      -0.10286471       0.01000726      -0.19339631
O        3.38400000       0.87330000       4.49560000       0.57427573       1.04359293       0.74810362
C       -1.03420000      -0.07770000       6.76420000       0.33471704      -0.17469752       0.25203422
S       -5.05430000      -0.40750000       2.79160000      -0.34358329      -0.07131317       0.64610207
H       -1.60200000      -1.00250000       6.56660000       0.45768094       0.15937606      -0.17125593
Cl       2.87430000      -1.46040000       5.56550000       0.30046684      -0.97185886       0.49984398
H       -1.68690000       0.79350000       6.58580000       0.31423336       0.18480158      -0.22213897
H       -0.69890000      -0.07360000       7.80840000      -0.08708765      -0.09203522       0.20471242
C       -6.00120000       0.43760000       1.50610000       0.09530453       0.43673533       0.03557664
O       -4.90200000      -1.82260000       2.49470000      -0.44463295      -0.63517302       0.02380499
C       -5.81210000      -0.13860000       0.11390000      -0.41140294      -0.19007990      -0.26785779
H       -4.76530000      -0.07350000      -0.20850000      -0.18043970       0.03931271      -0.43370345
O       -5.49900000       0.06500000       4.09110000      -0.09738110       0.13214344       0.20939025
H       -6.44460000       0.42100000      -0.59180000       0.32117274      -0.15606478      -0.47352827
H       -6.10960000      -1.19620000       0.09160000       0.27785265       0.20063800       0.03598052
H       -5.71060000       1.49380000       1.60320000      -0.07808185      -0.11976268       0.30131522
H       -7.03280000       0.33300000       1.87770000       0.57708400      -0.13093336       0.10087048
19
Properties=species:S:1:pos:R:3:MACE_forces:R:3 Energy=2.253008792777525 MACE_energy=0.6838841438293457 pbc="F F F"
Au       0.37300000      -2.23130000      -0.44970000      -0.08787006       0.51285177       0.50566268
S        0.00000000       0.00000000       0.00000000       0.03067306      -0.47648406      -0.69673973
C       -0.00000000       0.00000000       1.77400000       0.42886612       0.24134882       1.10511529
C       -1.16760000       0.08330000       2.56240000       0.70118320      -0.28124362       0.83809406
C        1.23360000       0.00000000       2.42730000       0.09490081      -0.01562532       0.10858408
C       -2.53180000       0.03530000       1.90830000       0.55636573      -0.08246775      -0.19653048
F       -2.68820000      -1.12630000       1.21790000      -0.32767898      -0.05501704      -0.43423343
C       -1.07050000       0.18270000       3.95570000       0.09067823      -0.16726103      -0.87154365
F       -2.69480000       1.06630000       1.04280000      -0.59140897       0.40298593      -0.37452859
H       -3.34670000       0.08740000       2.64270000      -0.41193444      -0.01193904       0.67889571
F        2.37430000      -0.11160000       1.78720000       0.24668643      -0.16248150       0.28739625
N        0.15630000       0.17930000       4.56610000       0.03888750      -0.07611294       0.61680436
C       -2.17850000       0.30530000       4.95750000       0.01307352       0.09064287       1.02479458
N        1.37270000       0.06380000       3.77330000       0.58592051       0.16366769      -0.12286198
O        2.42920000       0.04760000       4.39270000      -0.53931665       0.04755976      -0.95822370
H       -3.16950000       0.33680000       4.49640000      -0.30783412       0.04045614      -0.23137704
O        0.34290000       0.25690000       5.77830000      -0.73894179      -0.08018684      -0.77867740
H       -2.03120000       1.21670000       5.55760000       0.10710584      -0.07061327      -0.26295882
H       -2.13430000      -0.53610000       5.66680000       0.11064415      -0.02008058      -0.23767236
35
Properties=species:S:1:pos:R:3:MACE_forces:R:3 Energy=2.7519740670728927 MACE_energy=2.5250768661499023 pbc="F F F"
Au       0.46260000       2.20280000      -0.51380000       0.02059211      -0.37017757       0.23621379
S        0.00000000       0.00000000       0.00000000       0.49897659       0.19885990       0.14767759
C        0.00000000       0.00000000       1.77910000      -0.69782090       0.31800017      -0.09015887
C        1.16740000       0.00000000       2.57560000      -0.07171449       0.05884821      -0.39558074
C       -1.23040000      -0.14730000       2.43530000      -0.24473554       0.06414681       0.80541885
H       -2.14570000      -0.14750000       1.84260000       0.59600067      -0.26810548      -0.04122080
C       -1.32920000      -0.32030000       3.82100000      -0.27828211      -0.19317497      -0.25177020
C        2.53600000       0.23750000       2.01940000       0.08833351       0.09126580      -0.49145505
C        1.08170000      -0.14350000       3.96400000       0.04649773      -0.20860332      -0.60267800
C       -0.15450000      -0.28620000       4.61300000      -0.05993546       0.26802295       0.07696226
O       -0.27660000      -0.35000000       5.94170000      -0.70610660      -0.31550193       0.04444596
H        1.99940000      -0.12560000       4.54600000      -0.00111622       0.03556027      -0.31879508
O        2.84900000       1.07070000       1.20780000      -0.57568085       0.08440271      -0.09830272
C       -2.70840000      -0.49200000       4.35280000       0.18777412       0.12086312      -0.30881280
O        3.43800000      -0.56940000       2.62600000       0.25553760      -0.07952040      -0.45537603
O       -3.67680000       0.06140000       3.93990000      -0.02442980       0.17911687       0.27336207
C        4.81810000      -0.25250000       2.47990000       0.20779487      -0.08502658      -0.02323113
Cl      -2.88000000      -1.77140000       5.61400000       0.57723641       0.19099548       0.10868883
C        0.89070000      -0.32620000       6.77140000      -0.34791365      -0.16372766       0.53483367
H        1.55410000      -1.16470000       6.49580000      -0.00838701      -0.45295548      -0.15552628
H        1.45010000       0.60820000       6.59740000      -0.26979342       0.06463446       0.03116367
C        0.44540000      -0.43910000       8.21690000       0.32219392       0.28212386      -0.20967774
C       -0.25650000      -1.75660000       8.54030000      -0.05629351      -0.11820082       0.11086887
H       -0.21660000       0.41330000       8.44590000       0.06295801       0.72523296       0.23050784
H        1.34550000      -0.31510000       8.84260000       0.20276743       0.39909148       0.40841252
H        5.21980000      -0.70610000       1.56010000      -0.34876961       0.03729064       0.07465249
H        4.94300000       0.83780000       2.40450000       0.31082124       0.21613362       0.03449590
C        5.52650000      -0.82460000       3.70890000       0.17480011      -0.14687915       0.19550955
C        4.90400000      -0.35550000       4.94970000      -0.12678328       0.12758572      -0.02107264
H        5.47700000      -1.92540000       3.69660000       0.01377369      -0.03212646       0.22614780
H       -1.15920000      -1.87870000       7.92460000      -0.14406687      -0.61454099      -0.22432014
N        4.35050000       0.01330000       5.89790000       0.35282525      -0.12878396       0.17162484
H        6.59120000      -0.54200000       3.69650000       0.19160636      -0.06017086       0.14240946
H        0.40500000      -2.61680000       8.34350000      -0.19209358      -0.07200727      -0.18007012
H       -0.55410000      -1.79760000       9.59940000       0.04343347      -0.15267202       0.01465216
24
Properties=species:S:1:pos:R:3:MACE_forces:R:3 Energy=1.798109050868122 MACE_energy=1.1763416528701782 pbc="F F F"
Au       2.30610000       0.00040000      -0.26250000      -0.27952495      -0.05248387       1.18524563
S        0.00000000       0.00000000       0.00000000      -0.25366113       0.17779526      -0.16033721
C        0.00000000       0.00000000       1.76490000       0.42281455      -0.09269621      -0.52809650
N        1.09290000      -0.00000000       2.44690000      -0.18503338       0.01473146      -0.40050465
N       -1.26900000      -0.00270000       2.33730000       0.22515802       0.25913423       0.50654125
C        1.09050000       0.00450000       3.84170000       0.01057266      -0.00783537       0.02623006
C       -2.43150000      -0.09200000       1.54320000      -0.12760797      -0.37667599      -0.21122637
O        2.13550000      -0.16750000       4.44390000       0.27654743       0.06248971      -0.60301977
C       -0.21590000       0.24370000       4.53570000       0.25046796      -0.17715600      -0.19068286
C       -1.45660000       0.12260000       3.74620000      -0.90893698      -0.20134175       0.55563414
O       -2.59380000       0.13000000       4.17000000       0.80340344      -0.01785918      -0.14292650
C       -0.27940000       0.56290000       5.87400000      -0.13348384      -0.01748155       0.14010279
C       -2.96150000      -1.25970000       1.16290000      -0.30696344      -0.52049714       0.08724904
I       -3.37200000       1.73410000       0.98980000       0.21999046       0.14488395      -0.00413990
Cl      -2.25670000      -2.77320000       1.60530000       0.42530239       0.06008780       0.35879070
H       -3.85650000      -1.32880000       0.54470000      -0.19476160       0.55956954      -0.28526136
C        0.95390000       0.71210000       6.71650000      -0.24304640      -0.26555592      -0.22734220
H        1.37750000      -0.28310000       6.93370000       0.00340921      -0.10047074      -0.19660527
H        0.71880000       1.21170000       7.66590000       0.12754008       0.38279024       0.36691979
H        1.75890000       1.23920000       6.18850000       0.19910228       0.10353130       0.04449676
C       -1.58370000       0.77520000       6.59060000       0.21969172      -0.19119367      -0.28464174
H       -2.18460000      -0.14740000       6.58290000      -0.19027543      -0.15204044      -0.33180317
H       -1.41420000       1.09240000       7.62760000      -0.06833751       0.19269410       0.38372269
H       -2.21480000       1.51360000       6.07390000      -0.29236779       0.21558028      -0.08834533
40
Properties=species:S:1:pos:R:3:MACE_forces:R:3 Energy=2.2109878242736793 MACE_energy=2.8073253631591797 pbc="F F F"
Au       1.98680000       1.32570000       0.11980000       0.00361276      -0.43227831      -0.09044932
S        0.00000000       0.00000000       0.00000000      -0.70760298       0.08201274      -0.18755561
C       -0.00000000      -0.00000000       1.74600000       0.12598298      -0.36468995       0.16632594
N        1.09280000       0.00000000       2.46280000      -0.64896351       1.10982704       0.23629040
N       -1.12630000       0.27680000       2.54240000       1.69511390      -0.41041094      -0.42920017
C        0.77800000       0.53630000       3.69510000       0.59297085      -0.67979246       0.23635155
C       -0.69340000       0.56310000       3.84030000      -0.00692698       0.20839199      -1.12622094
C       -1.51220000       0.86170000       4.89340000      -0.27730531      -0.00402693       0.61988884
C       -2.48610000       0.25110000       2.11690000      -0.11480586      -0.04750496      -0.68682349
C       -2.95140000       1.24920000       1.25610000      -0.52363151      -0.82700115       0.37690765
H       -2.57330000       1.00590000       4.68670000      -0.62531465       0.55120426       1.16707873
C       -1.05720000       0.92470000       6.27490000       0.50672567      -0.63888383      -0.45879337
O        0.02900000       0.54740000       6.68310000      -0.02278326      -0.33288944      -0.79171848
C       -3.33560000      -0.76320000       2.57140000      -0.43683496      -0.17168215      -0.22213341
C        1.76680000       1.28550000       4.26970000       0.04894900       0.10964257      -0.00707349
H       -2.94640000      -1.53500000       3.23720000      -0.16745509      -0.27969015       0.24375601
S        3.34220000       1.34650000       3.26760000      -0.88248122      -0.31972396       0.27561516
C       -2.05270000       1.43890000       7.29110000      -0.76346564       0.65929532       0.53529555
C       -3.40010000       1.03850000       7.31830000      -0.60076731       0.26421440       0.75549531
H       -3.80210000       0.39070000       6.53380000       0.53267258      -0.13934824      -0.24278943
C       -4.66950000      -0.77120000       2.16000000       0.24657828       0.30263686      -0.17549595
N        1.79360000       2.15140000       5.30910000       0.78079081       0.25831228       0.58508265
C       -5.15190000       0.21250000       1.29390000       0.26795408      -0.02066456       0.10260341
H       -2.28050000       2.03220000       0.90600000       0.58974504       0.26248479       0.06675179
C        2.93740000       2.72610000       5.39920000      -0.17325798       0.14597142      -0.47886831
C       -1.67020000       2.23060000       8.36620000      -0.40223470      -0.00389472      -0.35167834
N       -0.31880000       2.80860000       8.47860000       0.44207513       0.26397508       0.21572998
O        3.92670000       2.41240000       4.52970000      -0.19591910       0.16409823       0.27661002
O        3.09330000       2.23040000       2.06040000       0.37290019       0.57052749      -0.09491171
O        0.23520000       2.68800000       9.55570000       0.24044727      -0.10158207      -0.50907743
C       -4.28560000       1.21420000       0.84550000      -0.34378144       0.29179335      -0.21164393
C       -2.60670000       2.54240000       9.35280000       0.16570145      -0.06855384      -0.08060928
Cl      -4.87700000       2.44600000      -0.23570000       0.37895694       0.66763484      -0.31131878
H       -6.19080000       0.20930000       0.96230000      -0.09967355      -0.74813759       0.52334291
O        0.10100000       3.41090000       7.50950000      -0.28994209       0.13225746       0.41994643
N       -4.26420000       1.37210000       8.27610000       0.72741997      -0.05821818      -0.16587615
N       -3.87050000       2.12670000       9.28900000       0.01025505      -0.15115224      -0.51329035
H       -2.32960000       3.15570000      10.21400000      -0.36911136       0.16946965       0.17190436
H        3.19750000       3.47930000       6.14810000      -0.09106328      -0.50489438       0.15679854
H       -5.34140000      -1.55810000       2.50890000       0.01446940       0.09127013       0.00375277
19
Properties=species:S:1:pos:R:3:MACE_forces:R:3 Energy=0.2735529685423197 MACE_energy=-0.10410267114639282 pbc="F F F"
Au       1.13550000      -1.92930000      -0.51630000      -0.43672779       0.00143418       0.34137088
S        0.00000000       0.00000000       0.00000000       0.47897047      -0.17255750       0.61757743
C        0.00000000       0.00000000       1.85150000      -0.49586767       0.21133545      -1.05173910
C        1.36770000       0.00000000       2.47500000       1.15686750      -0.04497477       0.52387458
C        2.05330000       1.21530000       2.63140000       0.30952606       0.02026400      -0.22262599
C        2.04130000      -1.18510000       2.84100000       0.30160534       0.19165561      -0.04185884
C        1.42800000      -2.53070000       2.69870000       0.56478554      -0.71113861       0.61418599
C        3.35180000      -1.13570000       3.34350000      -0.81125486       0.59264416      -0.39292568
H        0.35090000      -2.55210000       2.40920000      -0.64457363       0.27593577      -0.50709015
H       -0.51860000       0.94470000       2.08170000      -0.50350618      -0.46430475       0.20258233
H       -0.63900000      -0.81320000       2.21610000       0.06728430       0.06846709      -0.12637952
O        2.02570000      -3.56980000       2.88540000       0.10188242       0.63246262      -0.23685578
C        4.00990000       0.08240000       3.49840000      -0.07883139      -0.37112799      -0.00597145
C        3.34650000       1.26810000       3.13800000       0.14146502      -0.46570519       0.04230938
H        3.83200000      -2.08240000       3.60630000      -0.09421975      -0.02903409       0.01636504
H        3.86810000       2.21910000       3.26110000       0.26009211      -0.05464540       0.16009852
O        5.27090000       0.18680000       3.98360000      -0.02584382       0.19382915       0.00389358
H        5.61010000      -0.69420000       4.19070000       0.17890842       0.03600587       0.08915510
H        1.55820000       2.14400000       2.33690000      -0.47056192       0.08945444      -0.02596630
26
Properties=species:S:1:pos:R:3:MACE_forces:R:3 Energy=0.189841541330705 MACE_energy=-0.43924716114997864 pbc="F F F"
Au       0.93100000      -2.05360000      -0.50450000       0.10920183       0.79300505       0.34725276
S        0.00000000       0.00000000       0.00000000      -0.08164704      -0.42746922       0.27381212
C        0.00000000      -0.00000000       1.77750000       0.13291946      -0.17826369       1.07156682
C        1.16590000      -0.00000000       2.57800000      -0.68180418       0.03383192      -0.98260432
Br       2.87220000      -0.14350000       1.76390000      -1.22116780      -0.25379667       0.50935781
C       -1.26180000       0.09560000       2.39090000       0.95675516      -0.06167032       1.00844479
C        1.04960000       0.08860000       3.97830000      -0.02356622      -0.11410909      -1.20513535
H       -2.15600000       0.07800000       1.77360000       0.60926849       0.22011095      -0.79948008
C       -1.37110000       0.21050000       3.77920000       0.62507212      -0.18118049      -1.08644819
C       -0.21020000       0.20060000       4.56350000      -0.36071098      -0.03522482       0.12795204
N       -2.60320000       0.32410000       4.44770000       0.22167066      -0.44327936       1.07953775
H       -0.28300000       0.27730000       5.64850000      -0.13011411      -0.00486768      -0.07684213
C        2.25810000       0.07620000       4.89910000       0.00519452       0.01970091       0.04935487
F        2.95850000      -1.06130000       4.78620000       0.40658650      -0.23479196       0.10325254
F        3.08870000       1.09750000       4.65020000       0.60081470       0.34947640       0.14374344
C       -3.84940000       0.35000000       3.90190000       0.90351486       0.22221036      -0.54666090
H       -2.55860000       0.39390000       5.45870000      -0.69453347       0.26308668      -0.11718848
F        1.88590000       0.17970000       6.18940000      -0.50543278       0.01480845      -0.47908270
O       -4.14140000       0.27290000       2.72930000      -0.44262826      -0.09562759       0.53210855
C       -4.98090000       0.48700000       4.95400000       0.07648367       0.07918660      -0.49344203
F       -5.79560000      -0.57760000       4.86600000      -0.12173940      -0.11813077       0.11245279
C       -5.81690000       1.77380000       4.75250000      -0.26948777       0.23823498      -0.06007648
F       -4.47520000       0.53280000       6.21960000      -0.06274817      -0.11496513       0.58509338
F       -4.98690000       2.82470000       4.70490000       0.00677401       0.17729320       0.01003565
F       -6.51480000       1.71900000       3.62740000      -0.17807393      -0.01634651       0.04837620
F       -6.65520000       1.93810000       5.77500000       0.11939792      -0.13122228      -0.15538108
17
Properties=species:S:1:pos:R:3:MACE_forces:R:3 Energy=1.5689772285097765 MACE_energy=1.5183625221252441 pbc="F F F"
Au       0.50210000       2.21190000      -0.43180000       0.17369968      -0.56080240       0.31713456
S        0.00000000       0.00000000       0.00000000       0.05101582       0.18701662       0.33691609
C       -0.00000000       0.00000000       1.77730000       0.74070561       0.33572727      -0.35878426
C        1.19240000      -0.00000000       2.52850000      -0.33730847       0.03867897       0.74718779
C        2.50650000       0.07730000       1.80110000       0.14488019      -0.13635279      -0.29228777
C        1.17190000      -0.04780000       3.92670000       0.70618200       0.12877041      -0.60039121
C       -0.05760000      -0.11440000       4.60850000       0.17872915      -0.14542998       0.77469134
C       -1.24500000      -0.16770000       3.86680000      -0.30286834       0.37967342       0.23365113
Cl       2.69170000      -0.11350000       4.77270000      -1.51591325       0.11676336      -1.15930581
O        3.04600000       1.07320000       1.44850000      -0.11950047      -0.01970798       0.19366884
C       -1.21170000      -0.09240000       2.48120000       0.23007865       0.05485744      -0.27631104
F       -2.36140000      -0.10110000       1.81550000      -0.23952028      -0.15468341       0.39260215
Cl       3.19870000      -1.53960000       1.49590000       0.08845273       0.07053770       0.09813623
C       -0.23000000      -0.17100000       6.09390000       0.19044575      -0.32547364      -0.70406467
H       -2.20640000      -0.24860000       4.37540000      -0.03351270       0.01540570      -0.44841892
Cl       0.64440000       1.11050000       6.98560000       0.20219716       0.45589295       0.25440890
O       -0.96370000      -0.91710000       6.65710000      -0.15776338      -0.44087374       0.49116650
27
Properties=species:S:1:pos:R:3:MACE_forces:R:3 Energy=5.349094305696012 MACE_energy=-0.34458357095718384 pbc="F F F"
Au       1.23010000      -1.91250000      -0.43760000      -0.31739777       0.55883801      -0.76651067
S        0.00000000       0.00000000       0.00000000       0.76218700      -0.88353908       0.19320545
C       -0.00000000      -0.00000000       1.82410000      -0.90317625       0.01047405      -0.42834771
C       -0.84680000      -1.12030000       2.44050000      -0.20203899      -0.18447565      -0.20321664
H       -0.42980000      -2.08430000       2.09540000      -0.60200489       0.10399783      -0.08260834
H       -1.87310000      -1.07290000       2.04900000      -0.06730928      -0.11238735       0.08267777
C        1.44360000       0.00000000       2.45160000       1.00277996       0.17549789       0.79201114