29
Energy=0.2594076500987332
C -4.4727 -0.3467 5.8097
C -3.0057 0.0949 5.756
C -2.4838 0.012 4.3491
N -3.2638 0.0038 3.2864
N -2.4918 -0.0022 2.1774
C -1.2242 0.0023 2.5491
N -1.1568 0.0102 3.9337
C 0.0886 -0.0058 4.5907
C 0.2504 -0.0273 5.9841
C 1.5279 -0.0426 6.5351
C 2.6618 -0.0364 5.7079
C 2.5102 -0.0189 4.3306
C 1.2293 -0.006 3.7357
N 1.1525 0.0 2.3637
C -0.0 0.0 1.7621
S 0.0 0.0 0.0
C -2.8374 1.5214 6.3131
H -4.837 -0.2998 6.8471
H -4.5956 -1.3745 5.4394
H -5.0986 0.306 5.1855
H -2.4239 -0.6047 6.3777
H -0.6105 -0.0339 6.6445
H 1.6395 -0.0586 7.6211
H 3.6608 -0.0464 6.1488
H 3.3663 -0.017 3.6544
Au -2.3164 -0.0066 -0.3661
H -1.7957 1.8715 6.2651
H -3.4551 2.2236 5.7322
H -3.1639 1.5637 7.3637
26
Energy=0.39960864752643455
Br -1.6869 3.082 5.8059
C -2.2277 1.2205 6.1132
C -2.3255 0.439 4.8048
O -3.392 -0.0656 4.5228
C -1.1047 0.3163 3.9403
C 0.1524 0.3713 4.5664
C 1.3244 0.2044 3.8427
C 1.226 0.0 2.4724
C 0.0 0.0 1.7872
C -1.202 0.1429 2.5342
C -2.5315 0.0958 1.8181
C -3.0703 -1.3362 1.6883
S 0.0 0.0 0.0
N 2.4983 -0.235 1.7594
O 3.3197 0.6613 1.7983
O 2.6532 -1.3243 1.2379
H -3.2225 1.2381 6.569
H -1.5023 0.7893 6.8147
H 0.2253 0.5414 5.6398
H 2.3028 0.2364 4.3227
H -2.3942 0.5208 0.8154
H -3.2687 0.71 2.3489
H -2.3552 -1.9828 1.1552
H -3.2677 -1.7646 2.6798
H -4.0123 -1.3372 1.1184
Au 0.0535 -2.259 -0.4672
32
Energy=2.752434505515633
Br -4.7052 -0.1568 8.467
C -3.4481 -0.1137 7.0366
C -2.0798 -0.0971 7.3218
C -1.1647 -0.0661 6.2713
C -1.5962 -0.0503 4.9335
C -2.9775 -0.0686 4.6734
C -3.9026 -0.1 5.7151
C -0.6483 -0.0132 3.8147
C 0.7396 0.0172 3.8456
N 1.1573 -0.0 2.5326
C -0.0 0.0 1.7465
N -1.0723 -0.0038 2.5089
S 0.0 0.0 0.0
C 2.4971 0.1383 2.0948
C 3.0278 -0.7488 1.1478
C 4.3386 -0.5879 0.7094
C 5.1031 0.4557 1.2318
C 4.5954 1.3425 2.1799
C 3.2798 1.1824 2.6085
N 6.4939 0.6279 0.7661
O 6.908 -0.1587 -0.0689
O 7.1371 1.5466 1.2464
H -1.7356 -0.1094 8.3568
H -0.0978 -0.0553 6.5053
H -3.3115 -0.0575 3.635
H -4.9729 -0.1139 5.5044
H 1.4534 0.017 4.6641
Au 0.9362 2.0662 -0.4814
H 2.4077 -1.5539 0.7572
H 4.7828 -1.259 -0.0244
H 5.2294 2.1446 2.5554
H 2.8453 1.8763 3.3295
21
Energy=0.6808932386017097
N -2.5975 0.7957 5.8062
C -2.5941 0.329 4.5202
O -3.6135 0.0078 3.9369
C -1.2419 0.2184 3.8636
C -0.0428 0.1689 4.5859
C 1.1696 0.0496 3.9114
O 2.333 0.0525 4.6606
C 3.2503 -0.95 4.565
F 3.6851 -1.2316 5.7908
F 4.3013 -0.5826 3.8339
F 2.7328 -2.0601 4.0297
C 1.193 0.0 2.516
C 0.0 0.0 1.7749
C -1.213 0.101 2.4696
S 0.0 0.0 0.0
F 2.369 -0.1056 1.9005
H -1.8118 1.3057 6.1867
H -3.5057 0.9453 6.2308
H -0.0164 0.186 5.6759
H -2.1584 0.0842 1.9263
Au 1.1329 -1.9415 -0.507
23
Energy=-0.07477348545457628
C 2.309 0.2846 5.9905
O 2.304 0.1619 4.5867
C 1.1199 0.1343 3.924
C -0.1158 0.2339 4.5749
C -1.2792 0.2119 3.8069
F -2.459 0.3088 4.439
C -1.2506 0.0976 2.4287
C 0.0 -0.0 1.7869
C 1.2056 0.0 2.5167
C 2.5642 -0.0943 1.8705
C 3.1553 1.2821 1.5375
S 0.0 0.0 0.0
H 1.7883 -0.5597 6.4765
H 3.3621 0.2815 6.3005
H 1.84 1.2289 6.3196
H -0.2055 0.3334 5.6547
H -2.1762 0.0888 1.8544
H 2.4845 -0.6892 0.95
H 3.2419 -0.6259 2.5542
H 4.1539 1.1812 1.0831
H 2.509 1.8183 0.8257
H 3.2537 1.8963 2.4459
Au 0.1406 -2.241 -0.5171
34
Energy=0.024418565465163643
S 0.0 0.0 0.0
C -0.0 0.0 1.8445
C 1.3764 -0.0 2.54
C 2.2282 -1.2186 2.0948
C 3.1124 -1.7322 3.2251
O 2.3631 -2.1902 4.3367
C 1.1254 -1.5327 4.5535
C 1.1426 -0.0867 4.0755
C 2.1493 1.2726 2.2011
O 1.3725 2.3976 2.612
C 1.4647 3.5504 1.9315
C 2.6305 3.9706 1.2724
C 2.6363 5.1792 0.5729
Br 4.2261 5.716 -0.3252
C 1.5045 5.9938 0.5139
C 0.3441 5.5816 1.1751
C 0.316 4.374 1.8725
Cl -1.1424 3.8538 2.6717
Au -0.0073 2.2501 -0.4968
H -0.6061 0.8378 2.2087
H -0.533 -0.9278 2.1092
H 1.5619 -2.0343 1.7722
H 2.8411 -0.9667 1.2154
H 3.8203 -0.9377 3.5406
H 3.7229 -2.5825 2.882
H 0.925 -1.5813 5.6356
H 0.3055 -2.0855 4.0508
H 1.9463 0.4471 4.6084
H 0.2045 0.4192 4.3506
H 3.125 1.2818 2.7178
H 2.3224 1.3226 1.1149
H 3.527 3.3537 1.3058
H 1.5239 6.9338 -0.0374
H -0.5573 6.1955 1.1456
36
Energy=1.5213864380491338
C 2.6842 -1.9563 8.0976
N 3.5018 -0.768 7.8803
C 3.3475 0.0783 6.807
O 4.1973 0.8949 6.4796
C 2.0583 -0.0081 6.0292
C 0.7986 0.0052 6.6672
C -0.3627 0.0176 5.9096
C -0.2897 0.0046 4.5082
C 0.9682 0.0025 3.8537
C 2.1367 0.0113 4.6402
N 1.0854 0.0 2.4756
C 0.0 0.0 1.77
N -1.26 -0.0008 2.3243
C -1.5196 0.0022 3.704
O -2.6606 0.0026 4.122
S 0.0 0.0 0.0
C 4.6994 -0.6026 8.7032
C 5.7678 -1.705 8.4474
S 5.8354 -2.7872 9.926
C 5.4487 -1.3362 10.979
C 4.3701 -0.5639 10.2188
H 3.318 -2.76 8.4995
H 2.2414 -2.3006 7.1551
H 1.8657 -1.7882 8.8175
H 0.7412 0.0266 7.7563
H -1.3503 0.0391 6.3741
H 3.1067 0.0415 4.1437
H -2.0824 0.0018 1.7266
Au 2.2925 0.0521 -0.3136
H 5.1285 0.3524 8.3811
H 5.5304 -2.3077 7.5603
H 6.7547 -1.2457 8.2864
H 6.3619 -0.7347 11.1197
H 5.1131 -1.6867 11.9652
H 3.3982 -1.0442 10.4005
H 4.2895 0.4755 10.5741
27
Energy=-0.026348834713554224
O -1.7444 0.354 4.7116
C -0.9421 0.2002 3.8222
N -1.2061 0.0621 2.4659
C 0.0 0.0 1.7539
N 1.0425 0.0 2.5138
C 0.5974 0.1398 3.8901
C 1.2017 1.3823 4.5569
C 2.7429 1.3699 4.6264
C 3.4266 1.3493 3.2778
C 4.1428 0.2132 2.848
C 4.6575 0.1289 1.5624
C 4.4649 1.194 0.6429
C 3.8198 2.3746 1.1004
C 3.3165 2.4404 2.4083
S 0.0 0.0 0.0
H -2.1296 0.1307 2.0543
H 0.8787 -0.7543 4.4794
H 0.864 2.2734 4.0017
H 0.7896 1.4665 5.5751
H 3.0632 2.2681 5.1814
H 3.0735 0.5002 5.2162
H 4.2491 -0.635 3.5274
H 5.1945 -0.7657 1.2413
H 4.9811 1.1876 -0.3208
H 3.7536 3.2456 0.4449
H 2.7932 3.3429 2.732
Au 2.2752 0.6614 -0.0106
22
Energy=0.9833545750557026
Br -2.306 -1.1585 6.4348
C -2.4387 -0.103 4.7791
C -1.164 -0.0732 3.9579
C 0.0678 -0.0936 4.6099
C 1.2517 -0.0447 3.8752
C 1.2205 -0.0 2.4902
C -0.0 -0.0 1.7898
C -1.2046 0.0123 2.5408
C -2.5718 0.1109 1.8846
F -3.3325 1.0445 2.4962
F -2.5323 0.4554 0.5943
F -3.2448 -1.0548 1.9647
S 0.0 0.0 0.0
C 2.5732 -0.0991 4.6031
F 2.8536 -1.3508 5.0069
F 2.5615 0.6762 5.6994
F 3.5925 0.3067 3.8272
H -3.2755 -0.5503 4.2418
H -2.7267 0.9063 5.0994
H 0.0997 -0.1597 5.6968
H 2.1556 0.0327 1.9337
Au 2.0653 -0.823 -0.6032
26
Energy=1.3907134455165095
N 3.0721 -1.4819 2.0764
C 2.5609 -0.1144 1.9279
C 1.1903 0.0 2.5449
C 1.0601 0.0332 3.9417
O 2.237 0.0355 4.6732
C 2.4572 -0.9589 5.5814
F 1.7542 -0.7403 6.7271
F 2.0648 -2.158 5.1142
C -0.1736 0.1238 4.5823
C -1.333 0.1403 3.804
C -1.2587 0.0581 2.413
C 0.0 0.0 1.7875
S 0.0 0.0 0.0
O -2.5206 0.212 4.494
C -3.6191 0.7427 3.8744
F -4.2042 -0.1746 3.0639
F -4.496 1.0574 4.8317
H 2.3634 -2.1623 1.7969
H 3.88 -1.628 1.4708
H 3.2479 0.5652 2.4561
H 2.4862 0.2299 0.8822
H 3.5314 -0.9717 5.8177
H -0.2414 0.1769 5.667
H -2.1572 -0.0016 1.8017
Au 0.7023 -2.1358 -0.5202
H -3.3735 1.6343 3.2688
24
Energy=1.5182196090549294
C -1.3536 -0.4458 6.6396
O -0.133 -0.3324 5.9381
C -0.147 -0.2239 4.5879
C -1.3168 -0.2294 3.8178
C -1.2331 -0.096 2.434
C 0.0 -0.0 1.7727
C 1.1712 0.0 2.5617
C 1.1112 -0.0785 3.9599
C 2.3423 -0.0209 4.8251
F 3.1949 0.9589 4.4298
F 3.0435 -1.2035 4.756
O 2.3743 0.2032 1.9324
C 3.236 -0.8557 1.7149
F 2.5963 -1.8697 1.0984
F 4.187 -0.3877 0.8965
S 0.0 0.0 0.0
H -1.094 -0.5159 7.7035
H -1.9078 -1.3529 6.3426
H -1.9964 0.4374 6.4811
H -2.2951 -0.3212 4.2867
H -2.1466 -0.0724 1.8369
H 2.0824 0.1432 5.879
H 3.6882 -1.2355 2.6432
Au 1.4147 1.7382 -0.5516
42
Energy=0.14515412034586836
S 0.0 0.0 0.0
C 0.0 0.0 1.7829
N 1.1206 0.0 2.4369
C 1.0873 0.0113 3.8137
C 2.298 0.0053 4.5409
C 2.2774 0.0193 5.9278
C 1.0573 0.0409 6.6324
C -0.141 0.0486 5.9331
C -0.1334 0.0323 4.5275
C -1.3952 0.0413 3.7847
O -2.5072 0.074 4.2835
N -1.246 0.0049 2.3776
C -2.4889 0.0182 1.5962
C -3.0331 1.4263 1.3635
C -4.2184 1.4156 0.4124
O -3.7608 1.0927 -0.8913
C -4.6563 0.3776 -1.7065
C -4.4102 -1.1244 -1.65
C -2.9799 -1.564 -2.0239
C -2.6849 -2.7406 -1.0649
C -3.9655 -2.8391 -0.2104
O -4.6034 -1.5797 -0.3183
Au 2.2931 -0.0554 -0.3067
H 3.2353 -0.0099 3.9823
H 3.22 0.0142 6.481
H 1.0578 0.052 7.7244
H -1.1065 0.0666 6.4419
H -3.2227 -0.5802 2.1498
H -2.3028 -0.4762 0.6382
H -3.3387 1.8609 2.3278
H -2.2422 2.0646 0.9366
H -4.9647 0.6788 0.7537
H -4.7016 2.4124 0.4014
H -5.7061 0.5901 -1.4326
H -4.5129 0.7149 -2.7476
H -5.1449 -1.6196 -2.3217
H -2.9115 -1.8479 -3.0841
H -2.2824 -0.7335 -1.8472
H -1.8054 -2.52 -0.4429
H -2.4825 -3.6822 -1.596
H -4.633 -3.6363 -0.5952
H -3.7766 -3.0362 0.8553
30
Energy=2.380379359711587
C 5.7364 0.102 7.1573
N 4.9178 0.0223 5.97
C 3.5395 0.0609 6.0776
C 2.8988 0.1192 7.3399
C 1.507 0.1508 7.4294
C 0.7043 0.1297 6.2905
C 1.325 0.0764 5.0323
C 2.7196 0.0446 4.927
C 0.5215 0.0537 3.8027
N -0.818 0.0859 3.8075
N -1.1407 0.0568 2.5106
C -0.0 0.0 1.7501
N 1.055 -0.0 2.5535
S 0.0 0.0 0.0
C -2.525 0.0296 2.0922
C 5.5363 0.0245 4.6628
H 5.533 -0.7296 7.8568
H 5.584 1.0462 7.7154
H 6.7953 0.0462 6.8747
H 3.4856 0.1402 8.2569
H 1.043 0.1949 8.4182
H -0.3833 0.1559 6.3581
H 3.1452 0.007 3.927
Au -0.0425 -2.2643 -0.4702
H -2.5659 0.2131 1.0123
H -2.971 -0.9522 2.3151
H -3.0804 0.8078 2.6327
H 5.2259 -0.8468 4.0584
H 5.2893 0.9321 4.08
H 6.627 -0.0186 4.7761
34
Energy=-0.4234626165749955
S 0.0 0.0 0.0
C 0.0 -0.0 1.8376
C -0.8177 -1.0978 2.5152
C -2.306 -1.0881 2.1631
C -3.0926 -2.2842 2.7057
C -3.161 -2.3475 4.2324
N -4.0649 -3.3672 4.7339
C -3.6135 -4.7375 4.5426
C -4.8045 -5.7066 4.6714
C -5.9054 -5.1262 5.5756
C -5.2573 -4.3088 6.693
C -4.4614 -3.1226 6.1174
O -6.7847 -6.1213 6.0625
Au 0.9049 -2.0443 -0.5191
H -0.4238 0.994 2.0704
H 1.0377 0.0 2.2002
H -0.6802 -0.9878 3.6052
H -0.3807 -2.0775 2.2466
H -2.7586 -0.1482 2.5308
H -2.4022 -1.0634 1.0661
H -2.6473 -3.2108 2.3033
H -4.1279 -2.2508 2.3283
H -2.1399 -2.4694 4.6642
H -3.5276 -1.3733 4.5996
H -2.8131 -5.0011 5.274
H -3.1573 -4.8337 3.5485
H -5.2305 -5.9445 3.6847
H -4.4597 -6.6607 5.1088
H -6.5377 -4.453 4.9766
H -6.0296 -3.958 7.3935
H -4.5895 -4.9778 7.2665
H -3.5757 -2.9234 6.7648
H -5.0755 -2.2062 6.1372
H -6.2651 -6.738 6.5964
29
Energy=1.7735402004605927
C 1.6918 1.8574 6.7076
C 1.1887 0.423 6.7318
O 0.0177 0.2478 5.9379
C 0.0917 0.2009 4.5921
C 1.2824 0.0958 3.8531
C 1.2207 0.0 2.4675
C -0.0 0.0 1.7702
C -1.1864 0.1031 2.5331
C -1.1454 0.2123 3.921
C -2.4313 0.3687 4.7186
O -2.7756 1.4523 5.1225
C -3.1895 -0.9072 4.988
O -2.446 0.1855 1.9786
C -2.9519 -0.8063 1.1701
F -2.6083 -2.0278 1.6635
F -4.2845 -0.6981 1.2271
S 0.0 0.0 0.0
H 0.8934 2.5443 7.0255
H 2.5451 1.9692 7.3949
H 2.0205 2.1581 5.7017
H 0.8747 0.1409 7.7468
H 1.9701 -0.292 6.4205
H 2.2528 0.0906 4.3471
H 2.142 -0.0749 1.8874
H -2.5689 -1.5467 5.6387
H -4.1425 -0.6837 5.4856
H -3.3574 -1.4641 4.0545
H -2.6076 -0.7397 0.1286
Au 0.0815 -2.2542 -0.5286
35
Energy=1.4726593007343836
S 0.0 0.0 0.0
C -0.0 0.0 1.7611
C -1.2543 -0.0361 2.4868
C -1.2576 -0.1264 3.8532
C -0.0035 -0.1779 4.5257
N 1.1199 -0.0968 3.7182
N 1.16 0.0 2.3803
C 2.1931 -0.1799 4.5598
C 3.5956 -0.1002 4.0565
C 3.9087 -1.1917 3.0173
N 5.1419 -0.8894 2.2908
S 5.3972 -1.3912 0.7291
O 6.8195 -1.2043 0.4788
O 4.4407 -0.6783 -0.1636
C 4.9989 -3.1318 0.6505
C 6.0617 -4.0347 0.7602
C 5.7853 -5.4026 0.7509
C 4.466 -5.8521 0.6357
C 3.4156 -4.9362 0.5221
C 3.6741 -3.5646 0.5269
N 1.7437 -0.3055 5.7997
N 0.3831 -0.302 5.7897
Au 2.2874 -0.3099 -0.2568
H -2.1858 -0.0083 1.9205
H -2.1794 -0.17 4.4347
H 4.2727 -0.1585 4.921
H 3.7509 0.8759 3.5672
H 3.9514 -2.1861 3.4952
H 3.0933 -1.2037 2.284
H 6.0171 -0.9501 2.8096
H 7.0839 -3.6612 0.8339
H 6.6053 -6.1197 0.8276
H 4.2555 -6.9238 0.6287
H 2.3866 -5.2877 0.4225
H 2.8557 -2.8494 0.4201
22
Energy=0.8132106816387176
C -2.974 1.7373 4.9907
C -2.6878 0.3018 4.5279
C -1.3572 0.1705 3.8313
C -1.2399 0.0883 2.4409
C -0.0 0.0 1.7855
S 0.0 0.0 0.0
C 1.1795 0.0 2.5641
C 1.0854 0.0793 3.9554
C -0.1633 0.1646 4.5591
F -0.2234 0.2438 5.8976
C 2.5602 -0.0875 1.9444
F 3.5204 -0.052 2.8892
F 2.7344 -1.236 1.265
F 2.8036 0.9248 1.1032
H -2.9815 2.433 4.1372
H -2.2065 2.0799 5.7012
H -3.9528 1.7989 5.4914
H -2.7061 -0.372 5.3997
H -3.4812 -0.0374 3.8438
H -2.1442 0.0866 1.8291
Au 0.0727 -2.2493 -0.4993
H 1.9776 0.08 4.5799
32
Energy=1.3414629178291273
Br 4.3122 5.8616 0.7652
C 3.767 4.0762 1.1509
C 3.4051 3.7344 2.4577
C 3.0094 2.426 2.7339
C 2.9708 1.4585 1.7195
C 3.3276 1.8251 0.4177
C 3.7316 3.1304 0.1253
C 2.5206 0.0486 2.0362
N 1.1445 0.0 2.5033
N 0.8789 0.0903 3.8111
C -0.4561 0.1362 3.9246
C -1.0601 0.0791 2.6487
C -0.0 -0.0 1.7429
S 0.0 0.0 0.0
C -1.1098 0.2452 5.2762
C -1.8105 1.6023 5.4438
C -2.0777 -0.9193 5.5296
H 3.4346 4.4854 3.2483
H 2.7122 2.1495 3.7483
H 3.2792 1.0854 -0.3847
H 4.0092 3.4118 -0.8913
H 3.1262 -0.3865 2.8431
H 2.6066 -0.5905 1.1481
H -2.1163 0.0841 2.3933
Au 0.1418 -2.2469 -0.5409
H -0.2895 0.185 6.0101
H -2.2426 1.6987 6.4528
H -1.1067 2.4343 5.289
H -2.6297 1.7149 4.7145
H -2.9112 -0.9047 4.8078
H -1.5677 -1.8902 5.4346
H -2.5111 -0.8551 6.5404
28
Energy=2.4155345127892938
Br -1.5686 -0.1657 7.8463
C -0.6963 -0.1108 6.1523
C 0.7113 -0.0309 6.122
N 1.4112 0.0167 4.9823
C 0.6857 -0.0272 3.8758
C -0.7302 -0.0914 3.7815
C -1.4537 -0.1407 4.9776
N -1.1144 -0.0621 2.4629
C 0.0 0.0 1.7601
N 1.1439 -0.0 2.5738
C 2.5592 0.076 2.2386
C 3.0314 1.4935 2.0438
C 3.6872 2.0741 0.9057
N 3.8553 3.4001 1.0691
N 3.3218 3.6755 2.2562
C 2.8164 2.5733 2.8832
C 3.2355 5.0518 2.7068
S 0.0 0.0 0.0
H 1.2733 -0.0016 7.0594
H -2.5428 -0.1933 4.9896
H 3.0936 -0.3943 3.0772
H 2.7421 -0.5168 1.3325
H 4.1997 1.5644 0.0868
H 2.3319 2.6263 3.8555
H 2.3536 5.5473 2.2711
H 3.1594 5.0708 3.8016
H 4.1412 5.5826 2.388
Au 1.544 1.7324 -0.3234
42
Energy=1.733714508059503
C -6.032 -1.1412 9.2338
S -5.5501 0.5058 9.8408
C -3.7424 0.4319 9.6056
C -3.3072 0.4692 8.1428
C -1.7884 0.3205 7.9077
C -1.0241 1.524 8.4941
O -0.6665 2.4683 7.8533
O -0.8064 1.459 9.8253
N -1.5626 0.1933 6.4888
C -0.3858 0.2578 5.8794
C -0.243 0.1352 4.5025
C -1.4095 -0.0483 3.6387
O -2.5529 -0.1704 4.0941
N -1.1921 -0.0317 2.2707
C 0.0 -0.0 1.7816
N 1.1672 0.0 2.5375
C 1.1043 0.1536 3.9626
O 2.1345 0.2533 4.6039
C 2.4658 -0.2229 1.9824
C 3.4083 0.813 1.9606
C 4.6578 0.6073 1.3723
C 4.9584 -0.6435 0.8182
C 4.0358 -1.6911 0.8696
C 2.7908 -1.4771 1.4622
Cl 6.5102 -0.8956 0.0629
S 0.0 0.0 0.0
H -5.5267 -1.9382 9.8014
H -7.1155 -1.2266 9.3971
H -5.8343 -1.2654 8.1587
H -3.3576 -0.4732 10.1108
H -3.36 1.3042 10.1563
H -3.6441 1.408 7.6763
H -3.7922 -0.3528 7.5929
H -1.4372 -0.5935 8.4292
H -1.1035 0.6111 10.1863
H -2.3474 0.0507 5.8235
H 0.5151 0.4101 6.4815
H 3.1582 1.7762 2.4056
H 5.4007 1.4053 1.3466
H 4.2919 -2.6618 0.4441
H 2.0518 -2.2787 1.4928
Au 1.933 1.0624 -0.6991
55
Energy=2.305153237008852
C -5.9826 2.0407 -0.9052
O -4.8348 2.0935 -0.0939
C -4.2409 0.9271 0.2724
C -4.6805 -0.3464 -0.1034
C -3.9987 -1.4935 0.3295
C -2.8693 -1.3846 1.1414
C -2.4255 -0.0937 1.5039
C -3.1037 1.0411 1.0871
N -1.2612 0.0117 2.3313
C -0.0 0.0 1.7748
N 1.1113 0.0 2.443
C 1.0935 -0.0093 3.8301
O 2.1587 -0.0052 4.4638
C -0.2074 -0.0382 4.4964
C -0.2996 -0.0977 5.8851
N 0.7451 -0.0785 6.6945
C 0.7168 -0.3204 8.1198
C 1.2589 -1.72 8.457
N 2.5658 -1.9422 7.8743
C 2.6209 -2.6826 6.6041
C 3.3725 -4.0212 6.7374
C 3.0834 -4.6578 8.0994
C 3.6058 -3.7598 9.2429
C 3.6424 -2.2835 8.7895
C -1.4487 -0.0478 3.7436
O -2.5766 -0.0972 4.2009
S 0.0 0.0 0.0
O -2.1377 -2.4184 1.6174
C -2.4889 -3.7285 1.2404
H -6.2966 3.0791 -1.0755
H -6.8084 1.493 -0.4149
H -5.7752 1.5652 -1.8816
H -5.5587 -0.471 -0.7362
H -4.369 -2.471 0.0224
H -2.7518 2.0288 1.384
H -1.2983 -0.1654 6.3317
H 1.6503 -0.0391 6.194
H 1.3459 0.4364 8.6164
H -0.3164 -0.2013 8.4857
H 0.5242 -2.4738 8.1106
H 1.3066 -1.8109 9.5556
H 1.5853 -2.8839 6.2839
H 3.0655 -2.0651 5.8042
H 4.4595 -3.8637 6.6278
H 3.0771 -4.6883 5.912
H 1.9916 -4.7901 8.1994
H 3.5211 -5.6661 8.167
H 4.6201 -4.0684 9.5494
H 2.9658 -3.8752 10.1331
H 3.6169 -1.602 9.6543
H 4.5976 -2.0787 8.2775
Au 2.3058 -0.0279 -0.2614
H -2.4401 -3.8626 0.1448
H -3.5028 -3.9956 1.5887
H -1.7598 -4.3973 1.716
25
Energy=0.7749822261873457
C -3.2257 -1.7837 4.5215
C -2.8474 -0.3067 4.3417
C -1.4686 -0.1399 3.752
C -1.2784 -0.0629 2.3708
C 0.0 -0.0 1.7894
S 0.0 0.0 0.0
C 1.1424 -0.0 2.626
C 0.9479 0.0325 4.0225
C -0.3355 -0.0785 4.5672
C 2.041 0.2205 5.0381
O 2.1372 -0.4202 6.0544
O 2.8379 1.262 4.7442
C 2.5568 -0.0712 2.0696
F 2.6408 -0.8079 0.9585
F 3.398 -0.6419 2.9545
F 3.0532 1.1495 1.7794
H -3.2137 -2.3136 3.556
H -4.2335 -1.8827 4.954
H -2.5145 -2.2943 5.1896
H -2.8922 0.2066 5.316
H -3.5856 0.1869 3.689
H -2.1427 -0.0472 1.7035
Au 1.0015 2.0046 -0.5318
H -0.4351 -0.095 5.6543
H 3.5133 1.3062 5.4431
41
Energy=-0.16735984487408284
C 3.3213 1.6582 3.1323
C 2.0851 1.3524 2.2859
C 1.3768 -0.0 2.5489
C 2.3035 -1.116 1.9781
N 2.1349 -2.4609 2.5387
C 1.0721 -3.2508 2.0179
O 0.3697 -2.8154 1.1096
C 0.9016 -4.5477 2.6445
C 1.7292 -4.9975 3.638
C 2.81 -4.1868 4.0672
C 2.9814 -2.948 3.4952
C 4.1807 -2.2344 4.0721
C 4.9225 -3.3668 4.8214
C 3.8522 -4.4401 5.1293
C -0.0 -0.0 1.8379
S 0.0 0.0 0.0
C 1.1235 -0.2264 4.06
C 0.2964 0.8429 4.7758
H 4.0945 0.8782 3.0475
H 3.7828 2.6032 2.8057
H 3.08 1.7649 4.2011
H 2.3559 1.3874 1.2187
H 1.3497 2.1628 2.4229
H 2.1345 -1.1808 0.895
H 3.3471 -0.8326 2.1407
H 0.0713 -5.1424 2.2624
H 1.5656 -5.9812 4.0878
H 4.8113 -1.7567 3.3067
H 3.8593 -1.4293 4.7562
H 5.6834 -3.7976 4.1518
H 5.4437 -3.005 5.7193
H 4.2627 -5.4621 5.0993
H 3.4231 -4.3027 6.1397
H -0.5428 -0.925 2.0712
H -0.6072 0.8428 2.1883
Au 0.0004 2.2256 -0.5623
H 0.6292 -1.2031 4.1856
H 2.0945 -0.3183 4.5708
H 0.7515 1.8425 4.6981
H -0.7267 0.9127 4.3775
H 0.2111 0.604 5.8475
29
Energy=-0.5950470962269243
S 0.0 0.0 0.0
C 0.0 0.0 1.8373
C -0.8361 -1.0792 2.5689
C -0.6957 -0.7256 4.0665
S -1.6753 -1.8274 5.1526
C -1.1796 -1.2186 6.7279
C -1.547 -1.7818 7.9818
N -1.0348 -1.0876 8.9937
N -0.3495 -0.0856 8.4328
C -0.3981 -0.1192 7.0674
C 0.417 0.8177 9.2617
C -2.3046 -0.9945 2.1284
C -0.28 -2.4848 2.305
Au 1.5809 -1.5506 -0.5952
H -0.4167 0.9957 2.0693
H 1.0373 -0.0 2.2015
H -1.0305 0.3106 4.2383
H 0.3605 -0.7982 4.3735
H -2.1681 -2.6571 8.1681
H 0.1076 0.6259 6.4603
H -0.1337 0.988 10.1959
H 0.5502 1.7745 8.738
H 1.4078 0.3986 9.504
H -2.7344 -0.0089 2.3711
H -2.9157 -1.7585 2.6311
H -2.3834 -1.1446 1.0418
H -0.8043 -3.233 2.9169
H -0.4016 -2.7599 1.2478
H 0.7927 -2.5408 2.554
28
Energy=-0.32357781858310264
C 4.0296 2.6311 6.2672
C 4.2925 1.7478 5.0616
O 3.0729 1.4259 4.3641
C 2.3701 0.3781 4.8089
O 2.6043 -0.236 5.8194
C 1.1664 0.1348 3.9371
C -0.0602 0.1034 4.605
C -1.2486 0.0179 3.8897
C -1.2304 -0.0029 2.4943
C -0.0 0.0 1.796
C 1.2073 0.0 2.5367
C 2.5525 -0.1895 1.8368
F 3.5077 -0.5736 2.7073
F 2.5043 -1.1534 0.9128
F 2.9832 0.9362 1.2447
S 0.0 0.0 0.0
C -2.5679 -0.0136 1.7692
F -2.7557 1.1019 1.0452
F -2.6974 -1.0669 0.9547
F -3.5878 -0.0751 2.6482
H 3.4908 3.545 5.9732
H 3.4362 2.0928 7.0202
H 4.9848 2.9271 6.7288
H 4.7868 0.8103 5.3554
H 4.9094 2.2595 4.3101
H -0.0684 0.1607 5.6943
H -2.2021 -0.0051 4.4155
Au 0.2569 2.257 -0.3923
18
Energy=-0.1100661127422928
S 0.0 0.0 0.0
C -0.0 0.0 1.8456
C 1.3752 0.0 2.4501
C 2.2107 -1.1239 2.3504
C 3.4996 -1.0826 2.8629
C 3.9728 0.0713 3.4976
C 3.1565 1.2083 3.5992
C 1.8629 1.1557 3.0675
Cl 3.6855 2.7115 4.2858
N 5.3423 0.0176 4.0385
O 6.1408 -0.6844 3.4365
O 5.5809 0.6457 5.0529
Au 1.3127 1.8227 -0.4829
H -0.5331 -0.9337 2.0907
H -0.5997 0.8392 2.2223
H 1.8516 -2.0234 1.8468
H 4.1729 -1.9357 2.7834
H 1.239 2.0485 3.1349
20
Energy=0.4581460141660449
C 4.746 0.2945 1.1501
C 3.7071 0.1799 2.2527
O 4.0127 0.1999 3.4295
N 2.4109 0.0826 1.7895
C 1.2207 -0.0 2.5084
C 1.1724 -0.0654 3.9121
C -0.0573 -0.1372 4.5646
C -1.26 -0.1405 3.8481
C -1.2244 -0.064 2.4591
C -0.0 0.0 1.7736
S 0.0 0.0 0.0
H 5.5951 -0.3565 1.4004
H 4.3636 0.037 0.152
H 5.1221 1.3297 1.1285
H 2.2733 0.049 0.7813
H 2.1083 -0.0552 4.4648
H -0.0732 -0.1897 5.656
H -2.2174 -0.1969 4.37
H -2.1463 -0.0535 1.8749
Au 0.4405 2.2126 -0.5289
39
Energy=0.4618936032377288
C 1.8116 0.0933 8.6274
C 0.4405 0.6762 8.2788
C -0.6931 -0.2924 8.6849
C -1.9748 -0.0319 7.8932
C -1.7729 -0.3304 6.3919
C -0.301 -0.0937 5.9717
C 0.3397 1.0509 6.7788
C -0.1909 0.0192 4.4731
C 1.0343 -0.0075 3.7899
O 2.1738 -0.0631 4.5005
N 1.1483 -0.0 2.4641
C -0.0 -0.0 1.7762
N -1.2195 0.0001 2.2939
C -1.3138 0.0108 3.6255
O -2.5622 -0.0108 4.1028
C -2.784 0.4042 5.4792
C -2.6894 1.9342 5.4949
C -4.2112 -0.0438 5.7772
S 0.0 0.0 0.0
H 2.6146 0.8275 8.4568
H 2.0317 -0.7901 8.0043
H 1.8578 -0.2226 9.6826
H 0.3078 1.6046 8.8614
H -0.8835 -0.211 9.767
H -0.3701 -1.3344 8.5119
H -2.2687 1.0206 8.0395
H -2.8037 -0.6388 8.2872
H -1.9794 -1.4017 6.2296
H 0.2612 -1.0035 6.2449
H 1.339 1.2711 6.3795
H -0.2557 1.9657 6.6548
H 2.897 -0.0941 3.8528
H -1.7141 2.2829 5.1306
H -2.8476 2.3392 6.504
H -3.4635 2.3484 4.8328
H -4.5356 0.3176 6.7633
H -4.8931 0.3593 5.0147
H -4.2846 -1.1414 5.7605
Au 2.2475 -0.0061 -0.4881
18
Energy=-0.945902107207411
S 0.0 0.0 0.0
C 0.0 0.0 1.8473
C -0.6958 1.2803 2.311
C 0.1618 2.497 2.0174
O 1.3293 2.5844 2.3118
O -0.5346 3.4598 1.3949
C 0.1943 4.6329 0.9872
C 0.8986 4.4011 -0.338
Au 1.5273 -1.6178 -0.5337
H 1.0314 -0.0 2.2224
H -0.5262 -0.8888 2.2211
H -0.8324 1.2283 3.405
H -1.6886 1.3968 1.8535
H -0.5668 5.4221 0.9088
H 0.9126 4.8994 1.7764
H 0.18 4.094 -1.113
H 1.3949 5.3274 -0.6684
H 1.661 3.6154 -0.2373
28
Energy=0.7338917198295412
S 0.0 0.0 0.0
C 0.0 0.0 1.8577
C 1.3944 -0.0 2.4577
O 2.0408 -1.0257 2.5758
N 1.9143 1.226 2.85
C 3.311 1.2835 3.2338
C 4.112 2.0783 2.1968
N 3.3952 3.3339 1.8834
C 2.2314 3.654 2.7197
C 1.2161 2.5052 2.7416
S 3.4574 3.9286 0.3355
O 3.4499 2.8039 -0.6624
O 2.4701 4.9946 0.2086
C 5.1042 4.601 0.1835
Au 1.7047 1.4438 -0.4867
H -0.4624 -0.9558 2.1377
H -0.6283 0.8181 2.2344
H 3.424 1.7282 4.2372
H 3.681 0.252 3.2778
H 5.1235 2.2994 2.5812
H 4.2082 1.4766 1.2813
H 1.7611 4.5658 2.3347
H 2.6029 3.8781 3.7313
H 0.6325 2.5347 1.8099
H 0.5192 2.6665 3.5858
H 5.834 3.8088 0.3932
H 5.2035 4.9508 -0.8524
H 5.1909 5.4309 0.8951
21
Energy=-1.6901581928001277
S 0.0 0.0 0.0
C 0.0 0.0 1.8342
C 1.3879 0.0 2.4654
C 1.3694 -0.1231 4.0012
C 0.7052 -1.3852 4.4891
C -0.5672 -1.3645 5.0781
C -1.1744 -2.5523 5.4879
N -0.6015 -3.7504 5.3511
C 0.6073 -3.7987 4.7969
C 1.2862 -2.6566 4.3562
Cl 2.8768 -2.8568 3.6511
Au 1.0235 -2.0029 -0.4682
H -0.6063 -0.8419 2.1971
H -0.5494 0.9241 2.0893
H 1.9652 -0.8386 2.0475
H 1.9247 0.9177 2.1775
H 2.4101 -0.1003 4.3621
H 0.8525 0.7436 4.4429
H -1.0831 -0.4108 5.2141
H -2.1692 -2.532 5.9468
H 1.0807 -4.7802 4.6868
20
Energy=-1.894512570951569
S 0.0 0.0 0.0
C -0.0 -0.0 1.8493
C -0.7433 -1.2438 2.3433
C 0.0173 -2.5564 2.0763
N -0.6384 -3.7829 2.4917
C -1.8142 -4.1337 1.727
C -0.815 -3.9326 3.9181
Au 1.2368 1.8482 -0.5384
H -0.4957 0.9129 2.2064
H 1.0367 0.0 2.2183
H -1.7431 -1.28 1.8778
H -0.9098 -1.1221 3.4276
H 0.2334 -2.6314 0.9978
H 0.9983 -2.5006 2.5824
H -2.1088 -5.1732 1.9476
H -2.7028 -3.4927 1.9307
H -1.5961 -4.0666 0.6493
H 0.1317 -3.7182 4.44
H -1.0999 -4.9715 4.1539
H -1.5988 -3.2729 4.3573
41
Energy=3.269749017462843
S 0.0 0.0 0.0
C 0.0 0.0 1.7822
N -1.1693 0.072 2.3605
C -1.1828 0.1568 3.7018
S -2.6477 0.2789 4.6433
C -1.7265 0.3008 6.1468
C -0.3688 0.2232 5.9086
C -0.0557 0.1437 4.5267
C 1.25 0.0442 3.9085
O 2.3202 0.0039 4.4946
N 1.1966 0.0 2.4826
C 2.5111 -0.046 1.8291
C 3.1285 -1.4424 1.8874
C 4.5284 -1.5077 1.285
N 5.4691 -0.5811 1.8987
C 6.5219 0.0241 1.2615
N 7.251 0.7447 2.0824
C 6.6559 0.6078 3.3127
C 5.5512 -0.2129 3.23
C -2.4129 0.3971 7.4383
C -3.7773 0.0751 7.5716
C -4.4159 0.1653 8.8078
C -3.7054 0.5746 9.9395
C -2.3497 0.8979 9.8217
C -1.7105 0.8149 8.5865
Au 0.4244 -2.222 -0.4812
H 0.3903 0.2015 6.6889
H 2.3873 0.2883 0.7935
H 3.1544 0.6665 2.3593
H 3.1507 -1.7834 2.932
H 2.4894 -2.1512 1.3328
H 4.9097 -2.5399 1.3734
H 4.491 -1.2685 0.2102
H 6.6943 -0.1078 0.1923
H 7.0412 1.1142 4.197
H 4.8034 -0.5034 3.9632
H -4.341 -0.2647 6.6996
H -5.4746 -0.0919 8.888
H -4.2055 0.6441 10.9081
H -1.7872 1.2272 10.6985
H -0.6589 1.0947 8.5048
20
Energy=1.4139435189910627
S 0.0 0.0 0.0
C 0.0 0.0 1.7477
N -1.0861 -0.1133 2.4668
N -0.6496 -0.1954 3.753
C 0.7238 -0.1195 3.8864
O 1.4187 -0.1492 4.8826
N 1.1318 -0.0 2.5544
C 2.5351 0.1516 2.1999
C 3.07 1.5227 2.4613
C 3.4485 2.1553 3.6129
C 3.8298 3.4877 3.2404
C 3.6564 3.5687 1.889
O 3.1928 2.3837 1.404
Au 0.8305 2.121 -0.4336
H -1.3069 -0.3023 4.5156
H 2.6481 -0.113 1.1408
H 3.0971 -0.5708 2.809
H 3.428 1.7096 4.6043
H 4.1911 4.2783 3.8943
H 3.8218 4.3539 1.1565
31
Energy=0.017874986193368712
S 0.0 0.0 0.0
C 0.0 0.0 1.8476
C 1.4098 -0.0 2.4268
C 2.5278 0.7692 1.7719
C 2.5364 -0.7426 1.7559
C 1.3409 -0.017 3.9441
O 2.6493 -0.0139 4.469
C 2.8568 -0.0314 5.8083
C 1.8442 -0.0495 6.7691
C 2.1733 -0.0668 8.1314
C 3.5076 -0.0659 8.527
C 4.5257 -0.0477 7.5641
C 4.2188 -0.0304 6.2008
S 5.3996 -0.007 4.8751
C 6.9757 -0.0141 5.7732
Au -2.2348 0.0427 -0.4908
H -0.5398 0.8916 2.2015
H -0.5404 -0.8916 2.2007
H 3.2442 1.265 2.4306
H 2.3051 1.2944 0.8395
H 3.2583 -1.2441 2.4044
H 2.3207 -1.2513 0.8127
H 0.7975 -0.9186 4.2877
H 0.7851 0.8693 4.3073
H 0.7978 -0.0503 6.4647
H 1.375 -0.081 8.8766
H 3.7701 -0.0794 9.587
H 5.565 -0.0474 7.8917
H 7.7557 -0.001 4.9994
H 7.0946 -0.9228 6.3821
H 7.0889 0.8781 6.4069
30
Energy=0.06201510207316368
S 0.0 0.0 0.0
C 0.0 0.0 1.7771
N 1.1191 0.0 2.4332
C 1.0894 0.0003 3.8089
C 2.3015 0.0105 4.5335
C 2.2829 0.0091 5.9203
C 1.0639 -0.0043 6.6277
C -0.1356 -0.0172 5.9314
C -0.1299 -0.0129 4.5251
C -1.3908 -0.0324 3.7858
O -2.501 -0.0765 4.293
N -1.2481 0.0005 2.3777
C -2.4985 0.006 1.5958
C -2.9401 -1.371 1.1594
C -3.3088 -2.3483 2.0946
C -3.7033 -3.6032 1.6344
C -3.7255 -3.8348 0.2547
N -3.3898 -2.9103 -0.6464
C -3.0056 -1.7144 -0.198
Au 2.2919 0.0888 -0.313
H 3.2378 0.019 3.9732
H 3.2264 0.0176 6.4719
H 1.0667 -0.0056 7.7196
H -1.0997 -0.0302 6.4427
H -2.3577 0.6636 0.7276
H -3.2541 0.4501 2.2556
H -3.2921 -2.1128 3.1609
H -3.9973 -4.391 2.3314
H -4.0321 -4.8123 -0.1361
H -2.7299 -0.973 -0.9572
19
Energy=1.9797596708963519
Br -7.2247 -0.0005 -1.3482
C -6.462 0.003 0.3813
C -7.2151 0.0075 1.5343
S -6.2089 0.0094 2.9339
C -4.7608 0.0042 1.96
C -5.0604 0.0011 0.6105
C -3.4563 0.0037 2.5922
N -2.3929 0.0007 1.8739
N -1.1775 0.0002 2.4748
C -0.77 0.0002 3.8035
N 0.5304 -0.0 3.8625
N 1.0237 0.0 2.5765
C -0.0 0.0 1.7495
S 0.0 0.0 0.0
H -8.2991 0.0097 1.6239
H -4.2981 -0.0024 -0.1669
H -3.4342 0.0061 3.6928
H -1.4478 -0.0001 4.6532
Au 2.3069 0.0043 -0.2275
19
Energy=1.0660771993120866
S 0.0 0.0 0.0
C 0.0 -0.0 1.7858
C 1.1849 0.0 2.5445
C 1.1481 -0.0457 3.9369
C -0.0718 -0.1126 4.6174
C -1.2582 -0.1274 3.8865
C -1.2201 -0.0619 2.4917
S -2.8109 -0.1479 1.6422
O -3.8474 -0.3561 2.6631
O -2.6702 -1.0874 0.5197
C -3.0477 1.5043 0.9681
Au 1.7931 1.345 -0.5372
H 2.144 0.035 2.0252
H 2.0874 -0.0395 4.4949
H -0.0981 -0.1581 5.7079
H -2.2332 -0.1919 4.3724
H -2.2094 1.7373 0.2997
H -3.9916 1.4499 0.4083
H -3.1272 2.211 1.8033
39
Energy=-0.13117188613007358
S 0.0 0.0 0.0
C 0.0 0.0 1.8487
C 1.4425 0.0 2.4158
C 1.3573 -0.24 3.9419
C 0.9504 -1.6721 4.2934
O 1.7992 -2.6232 3.6903
C 1.8165 -2.513 2.2784
C 2.3011 -1.1392 1.8268
C 2.034 1.3933 2.0948
N 3.4033 1.6284 2.5811
C 4.4365 1.5206 1.6365
O 4.2463 0.9283 0.5936
C 5.7308 2.2975 1.8473
C 6.6369 1.9003 3.0145
C 6.0987 2.3503 4.366
C 4.7508 1.7198 4.7172
C 3.5281 2.1223 3.9017
O 2.6068 2.7139 4.4219
Au -2.2249 0.2204 -0.493
H -0.5254 0.8933 2.2143
H -0.5538 -0.8806 2.1923
H 2.3545 -0.0736 4.3767
H 0.6759 0.4844 4.4169
H -0.1044 -1.8635 4.0062
H 1.0206 -1.8292 5.3806
H 2.4948 -3.2983 1.9131
H 0.8109 -2.7281 1.8623
H 2.3331 -1.083 0.7289
H 3.3364 -1.009 2.1758
H 1.4007 2.1641 2.5518
H 2.0404 1.5355 1.0087
H 5.4656 3.3661 1.9414
H 6.2671 2.1745 0.8977
H 6.7888 0.8067 3.012
H 7.6286 2.3501 2.8466
H 6.8162 2.0868 5.1596
H 6.0058 3.4503 4.3833
H 4.481 1.9717 5.7513
H 4.8376 0.621 4.6484
19
Energy=1.625550515032583
C -0.7663 -1.1597 6.712
O 0.1157 -0.3413 5.9485
C 0.0069 -0.1919 4.6279
C 1.2106 -0.1008 3.8847
I 3.0536 -0.1753 4.9269
C 1.2113 0.0 2.4995
C -0.0 -0.0 1.7795
C -1.2012 -0.0762 2.4862
C -1.193 -0.1376 3.8813
N -2.5051 -0.027 4.5358
O -3.4539 -0.5694 3.9952
O -2.5661 0.6481 5.5529
S 0.0 0.0 0.0
H -1.553 -0.555 7.1811
H -0.1465 -1.6412 7.4806
H -1.2288 -1.9355 6.0801
H 2.1539 0.0586 1.9547
H -2.1587 -0.0585 1.9675
Au 0.0977 2.2441 -0.5161
16
Energy=-0.231558621620357
C 1.0221 0.0004 6.6412
O -0.1692 0.0007 5.8869
C -0.0809 0.0004 4.5351
C -1.2881 0.0004 3.814
C -1.2554 0.0001 2.43
C -0.0 0.0 1.7798
N 1.1398 0.0 2.4634
C 1.1122 0.0002 3.802
S 0.0 0.0 0.0
H 1.6342 0.898 6.4396
H 0.7248 0.0004 7.698
H 1.6337 -0.8976 6.4396
H -2.2312 0.0005 4.3644
H -2.1807 0.0 1.8513
H 2.0853 0.0001 4.2992
Au 2.2728 -0.0027 -0.3929
19
Energy=0.14445903584938555
C -4.929 0.0021 6.7717
C -3.472 0.001 6.4214
C -2.4279 -0.0 7.3141
S -0.8721 -0.0008 6.5579
C -1.5925 0.0002 4.9701
C -2.9703 0.0011 5.0782
Cl -4.061 0.0023 3.7117
C -0.7298 0.0001 3.8108
N 0.5881 0.0001 3.8442
N 1.0472 0.0 2.5634
C 0.0 0.0 1.7527
N -1.1473 0.0 2.497
S 0.0 0.0 0.0
H -5.4375 -0.8825 6.355
H -5.436 0.8881 6.3561
H -5.0718 0.0015 7.8611
H -2.4995 -0.0003 8.4009
H -2.1076 0.0004 2.1726
Au 2.3118 0.0046 -0.2159
16
Energy=-0.05506156749369799
S 0.0 0.0 0.0
C 0.0 0.0 1.7659
N -1.2465 0.0052 2.2713
C -1.3264 -0.0199 3.5933
C -0.2231 -0.0523 4.4533
C 1.0569 -0.0139 3.799
N 1.1345 0.0 2.4548
N 2.2037 0.0061 4.4889
C -0.3182 -0.0904 5.9285
O 0.6435 0.0114 6.6643
O -1.5392 -0.2514 6.4756
Au 2.2528 -0.0118 -0.4749
H -2.3496 0.0011 3.9956
H 2.149 0.0316 5.5061
H 3.0738 0.0395 3.9744
H -2.2103 -0.4106 5.7983
37
Energy=-0.8064015978630741
C -2.1588 4.7881 -0.9174
C -1.9155 3.2993 -1.1673
C -2.7607 2.3614 -0.2992
C -2.5094 2.5005 1.2054
C -3.1896 1.4208 2.0532
C -2.5467 0.0318 1.9545
N -1.1891 -0.0082 2.4733
C 0.0 0.0 1.7638
S 0.0 0.0 0.0
N 1.064 -0.0 2.5378
C 0.5787 -0.003 3.8352
C -0.8379 -0.0016 3.8185
C -1.6041 -0.0101 4.9871
C -0.9284 -0.0202 6.2132
C -1.6927 -0.03 7.5144
C 0.4876 -0.0203 6.2311
C 1.2498 -0.0134 5.0655
H -3.2222 5.0483 -1.0559
H -1.5715 5.4103 -1.6113
H -1.8766 5.0848 0.1053
H -0.8496 3.0617 -1.0034
H -2.1159 3.0724 -2.2288
H -2.5518 1.3254 -0.6138
H -3.8347 2.5323 -0.5018
H -2.8622 3.4866 1.5481
H -1.4227 2.4872 1.401
H -4.2496 1.3247 1.7591
H -3.1881 1.7255 3.1125
H -2.5139 -0.321 0.9133
H -3.1438 -0.7019 2.5195
Au 2.2925 -0.2278 -0.2378
H -2.6958 -0.0096 4.9559
H -2.7797 -0.0253 7.3461
H -1.4445 0.8494 8.1321
H -1.4496 -0.9223 8.1155
H 0.9959 -0.0263 7.1994
H 2.341 -0.0165 5.0974
34