19
Energy=3.0383211815711757
C -1.2366 0.0061 2.4772
C 0.0 -0.0 1.7685
C -1.1219 0.1377 3.8949
N 1.1714 -0.0 2.4055
C 1.1475 0.0361 3.7471
N 0.0574 0.144 4.5173
S 0.0 0.0 0.0
N 2.3434 -0.0281 4.3793
H 3.1903 -0.0268 3.8293
C -2.5044 -0.0895 1.7302
O -2.5679 0.1182 0.5243
N -3.6497 -0.4211 2.4397
N -2.2147 0.254 4.7133
H -3.5481 -1.0308 3.2459
Au 2.2805 -0.2194 -0.3847
H -4.4411 -0.6274 1.8372
H 2.3747 0.074 5.3833
H -3.0692 0.6309 4.3186
H -1.9883 0.5155 5.6665
18
Energy=1.0237702468019112
C -0.0174 0.0618 4.527
C 1.1808 0.03 3.7691
C -1.2278 0.0495 3.8288
C -1.24 0.0162 2.43
N 1.1596 0.0 2.4312
N 2.4174 -0.0196 4.3558
Cl -2.744 0.0818 4.6707
Br 0.062 0.1175 6.422
C 0.0 0.0 1.7755
H 2.5023 0.2023 5.3407
S 0.0 0.0 0.0
Au 2.2746 0.0666 -0.4085
N 3.569 0.1257 3.5911
H -2.184 0.0154 1.8878
H 3.5207 -0.6028 2.8764
N 3.6667 1.4146 3.0127
H 4.65 1.6231 2.8546
H 3.139 1.4842 2.137
26
Energy=2.2855255302306623
C -1.1984 -0.0857 2.5343
C -1.1466 -0.1926 3.9341
C 0.0 0.0 1.7767
C -2.5305 -0.0797 1.8465
C 0.1144 -0.1792 4.5785
C 1.2978 -0.0865 3.8303
C 1.2325 0.0 2.4439
H 2.2705 -0.0829 4.3199
C -2.4016 -0.3275 4.7594
H 2.1495 0.0699 1.8568
S 0.0 0.0 0.0
H -3.0883 -1.0584 4.3094
Au -0.0852 2.2419 -0.553
H -2.9387 0.6344 4.8311
O 0.0965 -0.2624 5.9287
H -2.164 -0.6478 5.78
H -3.2932 0.4499 2.4278
C 1.3141 -0.2887 6.6585
H -2.4586 0.351 0.8438
Cl -3.1671 -1.7742 1.6114
H 1.931 -1.1443 6.3269
H 1.8904 0.6336 6.4588
C 0.9729 -0.4048 8.1298
H 0.4082 -1.3289 8.3253
H 0.3598 0.4498 8.4538
H 1.8933 -0.4236 8.733
19
Energy=3.089321534287597
C 0.0 0.0 1.7451
C -1.2127 -0.0109 2.4658
C -1.2321 -0.0503 3.8459
F -2.3727 0.022 1.8154
C -0.0294 -0.0882 4.5855
C 1.223 0.0 2.4859
F -2.4004 -0.095 4.5239
S 0.0 0.0 0.0
C 1.1994 -0.0576 3.9015
N 2.4529 -0.0696 4.589
H 2.6525 -0.9538 5.0579
N -0.0937 -0.1064 5.9569
Au 0.3631 2.2325 -0.5603
N 2.4136 0.1018 1.8508
H 0.7259 -0.4282 6.4546
H -0.9874 -0.3392 6.3712
H 2.4382 0.0318 0.8413
H 3.2482 0.0492 2.4207
H 2.544 0.6858 5.2679
25
Energy=6.339340075138625
C -1.2211 0.0795 2.4607
C -1.2278 0.1702 3.856
C -0.0135 0.1354 4.5828
C 0.0 0.0 1.7677
C 1.2208 0.0 2.477
S 0.0 0.0 0.0
N -2.3897 0.3353 4.6306
Au 0.5742 -2.1782 -0.5381
C 1.1963 0.0751 3.8746
O 2.3621 0.0964 4.5679
H -2.1628 0.0719 1.9196
H 3.0526 0.2 3.8814
N -0.0188 0.2411 5.982
H -0.5576 -0.4949 6.4379
N 2.5145 -0.0798 1.8902
H 2.4945 0.3227 0.9514
H -2.212 0.7163 5.555
H 2.798 -1.0565 1.7651
C -3.7024 0.1979 4.2399
O -4.0447 -0.183 3.1367
H 0.9254 0.2589 6.3594
C -4.7118 0.5888 5.3076
H -4.2954 0.5976 6.3259
H -5.1015 1.5941 5.079
H -5.5574 -0.1105 5.2604
23
Energy=4.6634288223318885
C 1.2025 -0.0385 3.9205
C -0.0626 -0.1546 4.5254
C 1.2402 0.0 2.4816
C -1.2834 -0.1629 3.8387
C 0.0 0.0 1.761
N 2.4048 0.0878 1.809
C -1.2174 -0.0543 2.4458
C 2.4734 0.0517 4.6871
C 2.4628 0.4366 6.1314
H 3.2603 -0.0516 2.3442
F -0.1636 -0.3078 5.8644
N -2.4873 -0.225 4.5394
H -2.141 -0.0351 1.8636
H -2.4061 -0.5967 5.4794
H 1.5292 0.7638 6.5839
H 2.3652 0.0282 0.7976
S 0.0 0.0 0.0
C 3.5943 0.4026 6.8467
H -3.2559 -0.6441 4.0275
H 4.5267 0.0681 6.3842
Au 0.6103 2.1848 -0.5308
O 3.5595 -0.1304 4.1318
H 3.6127 0.705 7.8965
19
Energy=2.259251131363107
C 0.0926 0.1125 4.5745
C -1.19 0.0396 3.9092
C -1.2296 -0.0015 2.4687
C 1.2278 0.0428 3.7269
C 0.1041 0.243 6.0335
N 1.1766 0.0 2.3966
C 0.0 0.0 1.7682
N -2.3373 0.022 4.5824
C -2.4955 -0.0525 1.7515
S 0.0 0.0 0.0
H -2.3004 0.0243 5.5987
H -3.1975 -0.0065 4.0303
Au 2.2748 -0.0427 -0.4206
O -0.862 0.1193 6.7462
O 2.4564 -0.0081 4.2315
Cl 1.6428 0.7024 6.8285
H 3.0515 -0.0549 3.4637
O -3.6113 -0.0585 2.256
H -2.3994 -0.0911 0.6401
17
Energy=3.6649982376415218
C -1.1558 -0.1834 3.9074
C 0.0858 -0.1695 4.5585
C -1.1918 -0.075 2.5242
C 1.2947 -0.0564 3.8683
C 0.0 -0.0 1.7632
C 1.2433 0.0 2.447
H -2.0764 -0.2593 4.4834
N 2.5547 -0.0466 4.4699
Br 0.1098 -0.2704 6.4663
N 2.439 0.1229 1.7727
S 0.0 0.0 0.0
H 3.2176 -0.3643 2.2105
H 2.5166 -0.039 5.4855
H 2.3587 -0.024 0.7684
Br -2.8947 -0.0231 1.6789
Au 0.3442 2.237 -0.499
H 3.15 0.7053 4.1241
39
Energy=5.738702430250153
C -3.6024 -0.0846 7.7774
N -2.244 -0.3464 7.905
C -1.6439 -0.2661 6.7089
N -2.5656 0.048 5.7717
C -4.5596 -0.0634 8.8693
C -1.4972 -0.5027 9.1585
C -3.8332 0.1425 6.4048
H -0.5976 -0.4713 6.5263
C -4.9899 0.3306 5.6405
H -5.9576 0.3863 6.1348
C -4.85 0.3608 4.2455
C -4.6308 -0.9856 9.9743
H -3.9601 -1.8377 10.1144
C -1.4858 0.7669 9.9646
H -1.0779 1.6458 9.4518
N -5.5886 -0.8 10.851
C -5.5974 0.8489 8.9812
C -1.9294 0.8613 11.2185
H -5.8151 1.6846 8.3177
H -1.9213 -1.3339 9.7361
H -2.3612 0.0042 11.7438
S -6.5185 0.5134 10.3915
H -0.4745 -0.7929 8.873
H -1.8832 1.8058 11.7662
C -3.6073 0.28 3.633
H -5.7402 0.4667 3.6216
C -2.3991 0.1871 4.3674
H -3.4982 0.3369 2.552
C -1.1183 0.2217 3.7631
C 0.1441 0.5368 4.4188
N -1.1079 0.043 2.4016
H 0.1929 0.9785 5.4124
C 1.2908 0.43 3.7006
H 2.271 0.7068 4.0933
C 0.0 -0.0 1.7312
N 1.2444 0.0 2.3915
H 2.0757 -0.0113 1.8137
S 0.0 0.0 0.0
Au 1.5543 -1.7851 -0.4223
26
Energy=2.4686906654593956
C -1.2458 0.0026 3.9323
C -1.2277 -0.0007 2.488
C 0.0146 0.0074 4.6321
N -2.3779 0.002 4.6384
C 1.2199 0.0039 3.8943
C -0.0 0.0 1.7652
H -3.2562 -0.0013 4.13
N -2.4596 -0.005 1.7544
C 0.0386 0.0055 6.0918
O -3.5447 -0.0023 2.3433
H -2.276 0.0074 5.6573
O -0.9408 0.0089 6.8322
C 1.1967 0.0 2.505
S 0.0 0.0 0.0
H 1.0481 0.0 6.551
C 2.582 0.0602 4.5654
H 2.1403 -0.0041 1.9617
O -2.3997 -0.0117 0.5225
H 2.6576 -0.6699 5.3849
Au 2.2468 0.0202 -0.6023
H 3.3333 -0.2361 3.8147
C 2.9224 1.4412 5.0706
H 2.8045 2.249 4.3384
C 3.3485 1.7251 6.3029
H 3.4719 0.9457 7.0624
H 3.5922 2.7483 6.6002
27
Energy=3.3686192407377438
C -1.2353 0.0142 2.4587
C -0.0 -0.0 1.7823
C 1.2205 0.0 2.5204
S 0.0 0.0 0.0
C 1.1836 0.0459 3.9345
C -0.0751 0.0601 4.5923
C -1.2553 0.0422 3.8638
C -2.5402 -0.0837 1.7236
O -2.7237 -0.8408 0.7886
H -2.2181 0.0172 4.3722
O 0.0007 0.0546 5.954
C 2.5009 -0.095 1.8015
Au 1.2878 1.862 -0.498
H 2.4686 -0.736 0.9149
N 2.311 0.0748 4.7252
C -1.1927 0.0319 6.7021
H 3.1651 -0.2767 4.3067
C 3.6596 0.5231 2.0947
H 3.7528 1.2373 2.9163
H -1.7924 -0.8704 6.4864
H 4.5443 0.3577 1.4745
H 2.1536 -0.1854 5.6921
N -3.5451 0.706 2.2334
H -3.3157 1.5316 2.7721
H -1.8127 0.9247 6.5047
H -4.4129 0.7157 1.7086
H -0.902 0.026 7.7607
23
Energy=2.280118457422738
C 1.2062 -0.0633 3.9155
C 1.2352 0.0 2.4803
C -0.0511 -0.1378 4.5871
C 0.0 0.0 1.7507
C 2.4416 0.0245 4.6917
N 2.4029 0.0943 1.8286
H 3.2571 0.0867 2.3869
C -1.2531 -0.1062 3.8468
C -1.209 -0.0261 2.465
S 0.0 0.0 0.0
H -2.1388 0.0005 1.8928
H 2.3845 0.0991 0.8145
N -0.0995 -0.2311 5.9515
O 3.569 0.0776 4.1986
C 2.2833 0.1244 6.2032
H 2.1689 1.1965 6.4461
H -2.2102 -0.1579 4.3702
Au 0.4734 2.2092 -0.5807
C 1.0706 -0.646 6.7012
H -1.0051 -0.451 6.3477
H 1.2497 -1.7353 6.5837
H 0.8961 -0.4548 7.7702
H 3.213 -0.2265 6.6715
18
Energy=2.836352048222515
C -1.1935 0.017 2.5314
C -0.0 0.0 1.7621
C 1.2498 0.0 2.4568
C -1.1645 0.0172 3.9226
C 1.2607 -0.0287 3.8652
H -2.0841 0.033 4.5047
C 0.0711 -0.0216 4.5895
N 2.4183 0.0886 1.7575
S 0.0 0.0 0.0
C -2.5188 -0.0521 1.8465
Au 0.6213 2.1848 -0.5002
H 2.3649 -0.1028 0.7611
O 0.0412 -0.0476 5.9404
O -2.8155 -0.7279 0.9203
H 3.2892 -0.1156 2.2288
H 0.9422 -0.069 6.2892
Cl -3.752 1.0623 2.5895
H 2.2194 -0.0391 4.3928
22
Energy=2.552858123199336
C -1.1909 0.1097 2.5314
C 0.0 0.0 1.7654
C 1.2491 0.0 2.4533
C -1.1368 0.284 3.913
C 0.0987 0.3032 4.5873
C 1.2715 0.1562 3.8555
C -2.5188 -0.0705 1.878
S 0.0 0.0 0.0
H 2.2452 0.1624 4.3452
C 0.132 0.4777 6.083
N 2.4063 -0.1828 1.7414
Au 0.0984 -2.259 -0.5126
H 2.3004 -0.1283 0.7278
O -2.807 -0.8432 1.0262
Cl -3.804 1.0418 2.5454
N 3.6456 0.0248 2.3354
H -0.427 -0.3283 6.5864
H 4.0688 0.9009 2.0212
H -2.0659 0.3929 4.4724
H 1.1611 0.473 6.4689
H 4.2759 -0.7429 2.1088
H -0.3415 1.4284 6.3787
31
Energy=2.2316433533668305
C -2.4631 0.2548 2.2364
C -2.8093 1.4107 1.5261
H -2.0264 2.0829 1.1794
N -1.107 -0.0294 2.5365
C -3.4442 -0.6287 2.6918
H -3.1469 -1.5326 3.2278
C -4.1602 1.6697 1.2387
C -0.0 0.0 1.753
S 0.0 0.0 0.0
S 1.5364 0.0 2.3954
C -5.143 0.7811 1.6962
H -0.8843 -0.1914 3.5163
C -4.8041 -0.3699 2.4334
C -4.5339 2.8652 0.4479
Au -2.1411 -0.419 -0.8239
C -3.8443 4.0818 0.5572
N -5.7797 -1.2539 2.8484
C -5.5933 2.8307 -0.4784
H -6.1962 0.9952 1.5037
H -3.0183 4.1834 1.2644
C -4.235 5.1671 -0.2225
H -5.5443 -1.896 3.5946
H -6.1446 1.8954 -0.6316
N -5.9729 3.864 -1.2231
H -6.7334 -0.9157 2.8769
H -3.712 6.1223 -0.1425
C -5.3158 5.0274 -1.1069
C -5.793 6.1639 -1.9698
H -5.7228 5.8864 -3.0338
H -5.2108 7.0811 -1.8038
H -6.8551 6.3741 -1.7666
15
Energy=0.45320715299844283
C 0.0 0.0 1.7752
C -1.2516 0.0 2.432
C -1.354 0.0 3.8259
C -0.2065 0.0 4.6141
Br -2.8491 0.0 1.4034
H -2.3422 0.0 4.2878
C 1.028 0.0 3.9663
H -0.2507 0.0 5.7017
C 1.1485 -0.0 2.5809
N 2.2633 0.0 4.7761
H 2.1449 -0.0 2.1438
O 3.3297 -0.0 4.1821
S 0.0 0.0 0.0
Au 2.2226 -0.0001 -0.6046
O 2.1386 0.0 5.9894
21
Energy=5.30671542417876
C 0.0 -0.0 1.7647
C 1.2169 0.0 2.4875
C 1.2558 0.0631 3.8862
C -1.2227 0.0563 2.4849
C 0.0354 0.179 4.589
Cl 2.75 -0.1649 1.6551
C -1.1763 0.1444 3.8805
N 0.0516 0.2621 5.9743
S 0.0 0.0 0.0
N 2.4344 0.0879 4.6329
O -2.3039 0.2379 4.6501
H -0.8505 0.4963 6.3764
H 0.8091 0.8355 6.3395
H -3.0824 0.2595 4.08
Au 0.3948 -2.2189 -0.5424
H 3.2615 -0.1049 4.0756
H 2.391 -0.5144 5.4537
C -2.5749 0.0256 1.8223
H -2.4731 -0.0627 0.7346
H -3.1512 0.9468 2.0274
H -3.1744 -0.833 2.1759
17
Energy=2.2993234036849874
C 0.0 -0.0 1.7562
C 1.2201 -0.0 2.4757
C -1.2013 0.0824 2.5065
N -1.2352 0.1941 3.8231
O -2.3769 0.0472 1.8587
S 0.0 0.0 0.0
Au 0.2638 -2.2409 -0.5268
H -3.054 0.1214 2.5511
C -0.072 0.1824 4.4945
C 1.1754 0.0803 3.8955
N 2.4072 0.1078 4.5934
N 2.4258 -0.1207 1.8544
H -0.1384 0.2579 5.5872
H 2.4183 0.0196 0.8475
H 2.91 -0.7783 4.5152
H 2.2876 0.3192 5.581
H 3.2218 0.2374 2.3739
24
Energy=2.7670431396994273
C 1.2385 -0.0722 3.8736
O 2.3564 -0.0751 4.6397
C 1.2204 0.0 2.4833
H 2.1465 0.061 1.9144
C 0.0 0.0 1.774
C 3.6016 -0.0021 4.0018
C 0.0112 -0.1532 4.5844
O 0.0824 -0.222 5.931
C -1.1912 -0.1584 3.8748
H -0.8119 -0.2746 6.2935
C -1.2056 -0.0789 2.4803
S 0.0 0.0 0.0
Au 0.1318 2.2382 -0.5511
H -2.1509 -0.0761 1.9362
H -2.1323 -0.2229 4.4297
H 3.7532 -0.8482 3.3037
H 3.7115 0.9251 3.4105
C 4.7497 -0.0363 4.9948
O 5.8848 0.1933 4.658
O 4.3755 -0.3674 6.2297
C 5.4201 -0.4327 7.2018
H 4.9383 -0.708 8.1473
H 6.1695 -1.1865 6.9174
H 5.9245 0.5406 7.2961
21
Energy=4.099958213749357
C -0.0127 0.1221 4.5888
C 1.2127 0.0632 3.9156
C -1.2361 0.0232 3.8666
C -1.2123 -0.0151 2.4794
C 1.2228 0.0 2.4804
C 0.0 0.0 1.7683
C 0.0379 0.4021 6.05
O 0.7333 -0.1501 6.8472
S 0.0 0.0 0.0
Au 0.4408 -2.2175 -0.5131
Cl -0.8291 1.9137 6.5054
N 2.4555 0.0448 4.5422
H -2.1466 -0.1015 1.9207
N 2.43 -0.0659 1.8552
C -2.5125 -0.1973 4.5672
H 2.4247 -0.0143 5.5558
H 3.1998 -0.4661 2.3809
O -2.6109 -0.4518 5.7476
H 3.1083 0.7517 4.2086
H -3.4153 -0.1496 3.9064
H 2.4214 -0.193 0.848
19
Energy=5.124574120881188
C -1.1344 -0.1651 3.9401
C -1.1746 -0.047 2.522
C -0.0 -0.0 1.7577
C 0.1755 -0.1761 4.5422
C -2.4206 -0.1755 4.6462
O -3.449 0.2911 4.2824
C 1.2425 0.0 2.4861
S 0.0 0.0 0.0
N 1.294 -0.0883 3.8107
Au 0.0487 2.2578 -0.526
Cl -2.4577 -1.1273 6.242
N 2.4075 0.1098 1.8223
H 2.3994 0.1013 0.8088
H 3.2713 0.0658 2.3463
C -2.4195 0.0051 1.8031
N 0.3823 -0.2193 5.8728
N -3.3814 0.0539 1.1574
H -0.3715 -0.4181 6.518
H 1.3472 -0.2519 6.1761
22
Energy=5.2928908495597256
C 1.2153 -0.036 3.8765
C 1.2292 0.0 2.458
C 0.0 0.0 1.7658
N 2.4645 0.1133 1.8135
C -0.0187 -0.1564 4.5333
C -1.1958 -0.1144 3.7194
N -0.1873 -0.2342 5.9104
H 2.3467 0.0898 0.7999
H 3.1334 -0.5969 2.112
N 2.4817 -0.01 4.4883
N -1.1792 -0.025 2.4062
H 0.69 -0.3382 6.4158
S 0.0 0.0 0.0
H 3.132 0.5374 3.9199
N 2.5727 0.2153 5.8729
N -2.4262 -0.2227 4.3722
H 2.6653 1.2109 6.0959
H 3.3912 -0.2712 6.2347
H -0.9254 -0.8771 6.1875
H -2.4948 0.3649 5.2018
Au 0.2475 2.2455 -0.5552
H -3.1965 -0.0606 3.7288
24
Energy=2.9727226485767035
S -2.8091 -0.1579 4.7521
C -3.1943 -1.9469 4.6885
C -1.2397 -0.1402 3.8987
C -0.0075 -0.1717 4.6048
C 0.0131 -0.2759 6.1057
C 1.1866 -0.0988 3.894
C 1.2294 0.0 2.4862
C -1.1876 -0.0469 2.5093
H -3.2652 -2.2734 3.6427
H -2.4369 -2.5349 5.2265
H 2.1317 -0.1081 4.4431
N -2.4636 0.0284 1.762
C 0.0 0.0 1.7651
N 2.4088 0.1338 1.8231
H -4.1688 -2.0711 5.1824
H 3.28 -0.0319 2.3069
H -0.5165 0.5716 6.5668
H 2.3895 0.0544 0.8115
H -0.5083 -1.1842 6.4457
O -2.8406 1.1356 1.4335
O -3.0303 -1.0222 1.5247
S 0.0 0.0 0.0
H 1.0436 -0.3005 6.4869
Au -0.0118 2.2677 -0.4725
21
Energy=2.3071280943531587
C -1.1903 0.0311 2.514
C -1.1711 0.0681 3.9151
C 0.0586 0.1173 4.6081
C 0.0 -0.0 1.7588
Br -2.8578 -0.0581 1.6307
C 1.2649 0.1401 3.8632
C 1.2643 0.0 2.4398
N 2.505 0.4997 4.5231
O 2.4508 1.2527 5.4838
Cl -2.6246 0.0054 4.8609
S 0.0 0.0 0.0
O 3.5668 0.0654 4.067
Au 0.1768 -2.2578 -0.5131
N 2.3977 -0.1187 1.7284
H 2.3195 -0.0629 0.7177
H 3.2844 -0.138 2.2206
O -0.0223 0.1033 5.9375
C 0.8858 -0.6201 6.7617
H 1.6274 0.0557 7.2068
H 1.405 -1.4035 6.1859
H 0.2793 -1.09 7.5485
21
Energy=2.414208384717927
C 1.1695 0.0 2.5517
C 0.0 0.0 1.7731
C 1.1147 0.0915 3.9582
Cl 2.7459 -0.1657 1.8044
C -0.148 0.2147 4.5932
C -1.237 0.0942 2.4301
N 2.274 0.1209 4.71
H 3.1169 -0.1657 4.226
C -1.3246 0.2114 3.8207
S 0.0 0.0 0.0
C -2.6858 0.3257 4.464
H -3.4795 0.2781 3.7057
H -2.802 1.2777 5.0081
Au 0.817 -2.094 -0.528
H -2.1439 0.0755 1.8243
H -2.8663 -0.4849 5.1889
C -0.166 0.3503 6.0928
H 0.4962 1.1701 6.4203
H 0.1948 -0.5699 6.5902
H -1.1692 0.5531 6.484
H 2.2104 -0.2031 5.6662
22
Energy=2.017567844883555
C 1.1618 0.0 2.5627
C -0.0 0.0 1.7761
C -1.2026 0.0097 2.5223
C -1.2462 0.0744 3.8963
N -2.5135 -0.0648 1.8433
S 0.0 0.0 0.0
Au 1.0385 2.0155 -0.4725
C 1.1862 0.0541 3.9713
C -0.0612 0.0971 4.6687
O -2.625 -0.8779 0.9474
C 2.5082 0.0024 4.6531
H -2.2184 0.1102 4.3883
O 3.5481 -0.3054 4.1295
O 2.4636 0.3398 5.9701
N 2.4451 0.0547 1.8225
O -3.3927 0.6724 2.2582
H 3.3757 0.259 6.2994
O 2.9443 1.1624 1.7059
O 2.8429 -0.974 1.3307
N -0.1717 0.134 6.0186
H 0.6534 0.2439 6.5925
H -1.0878 0.195 6.4387
28
Energy=3.045613043209083
N 1.1536 -0.0 2.5265
C 2.5133 0.044 2.0556
C 2.8948 -1.0232 1.1469
C 0.0 0.0 1.7463
S 0.0 0.0 0.0
Au 0.6878 2.1656 -0.4566
N -1.0722 0.0788 2.5142
O 2.0818 -2.1149 0.9959
O 3.2705 0.9081 2.4321
C 4.0011 -1.1549 0.3371
H 4.812 -0.4347 0.2584
C -0.6445 0.1302 3.8056
C 0.758 0.1315 3.8547
C 1.6923 0.1595 4.9522
C 3.8478 -2.3819 -0.3641
C 2.6579 -2.9117 0.0847
C -1.6178 0.1594 4.9456
H 4.5132 -2.8254 -1.0995
H -1.39 -0.6495 5.6587
H 2.7178 -0.1492 4.736
C 1.385 0.5526 6.2135
Br 1.7819 -4.491 -0.3438
H -2.6223 -0.0263 4.5279
H 0.394 0.9539 6.4516
C 2.3443 0.5108 7.2655
N 3.11 0.4816 8.1401
O -1.5726 1.358 5.7051
H -1.7166 2.1023 5.1045
23
Energy=1.389296894952628
C 1.3475 0.0 2.5179
C 1.7619 -1.1154 3.2686
C 2.2206 1.0977 2.3748
C 3.0039 -1.168 3.8991
C 3.8684 -0.0554 3.7728
C 3.4727 1.0461 3.0167
H 1.0732 -1.9561 3.3559
O 5.0701 -0.1253 4.3986
C 0.0 0.0 1.8663
O 3.4673 -2.208 4.6464
H -0.5514 0.9288 2.0966
H 4.1625 1.8905 2.9143
H -0.6006 -0.8521 2.2098
S 0.0 0.0 0.0
N 1.8312 2.2138 1.6398
H 5.5506 0.6979 4.2439
Au 1.7724 -1.3995 -0.4383
C 2.6444 -3.3347 4.7963
H 2.4137 -3.8118 3.8247
H 1.2738 1.987 0.816
H 2.5839 2.8554 1.4149
H 1.6893 -3.0873 5.2969
H 3.1967 -4.0501 5.4205
20
Energy=4.36624347560886
C -1.2051 0.1029 2.5372
C 0.0 0.0 1.7713
N 1.19 0.0 2.3585
S 0.0 0.0 0.0
Au -1.2464 -1.8688 -0.5279
C -1.0772 0.2213 3.9108
C 0.2351 0.2414 4.4376
O -2.3646 0.0559 1.8747
N 1.3273 0.1278 3.6636
H -1.9387 0.313 4.5715
C -3.595 0.145 2.5855
H -3.6303 1.0999 3.1407
N 0.4706 0.402 5.7736
H -0.2609 0.2031 6.4416
H -3.655 -0.6756 3.3235
H 1.4279 0.2476 6.0691
C -4.7186 0.0571 1.5746
H -4.6414 0.873 0.8409
H -4.6757 -0.8988 1.0312
H -5.6926 0.1297 2.0819
18
Energy=1.1987430720130987
C -0.2038 0.04 4.4574
C -1.3101 0.0092 3.6009
C 1.061 0.0138 3.7981
C -0.4177 -0.0314 5.9308
O -1.348 -0.642 6.4198
N 1.1384 0.0 2.4574
N 0.5386 0.6013 6.7104
N 2.2387 0.0035 4.4715
N -1.2375 -0.0033 2.2796
N -2.6515 0.1727 4.1843
H 2.2432 -0.1807 5.4676
H 3.0746 -0.1677 3.9265
H 0.9894 1.4302 6.3338
H 0.2996 0.649 7.6973
C 0.0 -0.0 1.7663
S 0.0 0.0 0.0
Au 2.2501 -0.0202 -0.4849
O -3.4994 -0.491 3.6605
18
Energy=1.558661662460591
C 1.0611 -0.0 2.7526
C 0.6379 0.0001 4.1248
C 0.0 0.0 1.7715
N -0.625 0.0001 4.5307
C 2.5173 -0.0001 2.5537
C -1.3213 0.0 2.2418
H 3.0771 0.0 3.504
C -1.6075 0.0001 3.6126
O 3.1825 -0.0002 1.5183
H -2.1381 0.0 1.5163
N -2.8774 0.0001 4.0907
S 0.0 0.0 0.0
H -3.0133 0.0001 5.0926
H -3.6767 0.0001 3.4752
Au 2.2005 -0.0003 -0.678
C 1.519 0.0001 5.3664
O 2.7212 0.0001 5.4633
H 0.8594 0.0001 6.2668
15
Energy=0.8855141758730379
C -1.2603 -0.0 2.4239
C -1.3457 -0.0 3.8277
C -0.1898 -0.0 4.6087
Br -3.0173 -0.0 4.7218
C 1.0376 -0.0 3.9542
C 0.0 0.0 1.7762
C 1.1551 0.0 2.5701
H 2.1484 0.0 2.1274
H -0.2315 -0.0 5.6956
Br -2.8209 -0.0 1.3527
S 0.0 0.0 0.0
N 2.2741 -0.0 4.7658
Au 2.2231 0.0 -0.6089
O 2.1492 -0.0 5.9782
O 3.3383 -0.0 4.169
21
Energy=2.757017320950985
C 1.1789 0.0 2.5377
C 1.1263 -0.0062 3.9529
C -0.1366 -0.0322 4.632
C 2.3743 0.021 4.7182
C 0.0 0.0 1.7676
O 2.4017 0.0992 1.954
H 3.2974 0.07 4.1032
C 2.9163 -1.0642 1.3074
C -1.2383 -0.0024 2.4474
C -1.3083 -0.035 3.8248
H -2.159 0.0247 1.8636
S 0.0 0.0 0.0
H 3.0685 -1.8739 2.0423
Au 0.8837 2.072 -0.527
Cl -2.8691 -0.0583 4.6254
O 2.4525 0.0014 5.9412
N -0.2047 -0.0497 5.9735
H 2.2441 -1.4038 0.5059
H 3.8835 -0.776 0.8755
H 0.6763 -0.0391 6.4879
H -1.1105 -0.0589 6.4226
20
Energy=2.6012538310202937
C -1.3222 -0.3811 3.7807
C -0.1891 -0.4483 4.5936
C 1.0959 -0.2507 3.9946
C -0.2484 -0.7797 6.046
C 1.1625 0.0 2.5944
N 2.1981 -0.3253 4.7894
H -1.2485 -1.0912 6.3561
C -1.2407 -0.1921 2.3981
H 0.4827 -1.5587 6.2994
Br -3.0714 -0.5905 4.5144
Cl 0.1846 0.6517 7.1137
H 2.1086 -0.0284 5.7551
C 0.0 -0.0 1.7854
N 2.4618 0.3402 2.0255
S 0.0 0.0 0.0
Au 0.2041 2.2403 -0.5142
H 3.105 -0.2618 4.3402
H -2.1391 -0.1992 1.7838
O 3.4489 -0.2612 2.4516
O 2.5225 1.2184 1.1846
19
Energy=2.731478731142482
C 1.1054 -0.0512 3.8002
N 1.1432 -0.0 2.4606
C -0.0857 -0.0772 4.5435
C -1.3077 -0.0273 3.8201
C 0.0 0.0 1.7833
N -0.065 -0.1767 5.9289
C -1.2514 -0.0014 2.4255
N -2.5107 -0.0372 4.5207
S 0.0 0.0 0.0
H 0.6046 0.404 6.4242
H -0.9459 -0.3262 6.4009
C 2.4199 -0.1145 4.5096
H 3.2362 -0.2048 3.7866
Au 2.2532 0.3026 -0.3867
H 2.4461 -0.9358 5.2382
H -2.1739 0.0483 1.8429
H -2.5169 0.5653 5.3409
H -3.333 0.1232 3.9483
Cl 2.7581 1.4006 5.4959
20
Energy=2.993702745299524
C -0.065 0.0877 4.5945
C -1.2599 0.0934 3.8491
C -1.2147 0.0531 2.458
C 1.1637 0.0738 3.913
Br -2.9856 0.1771 4.6542
C -0.0 -0.0 1.7704
H -2.1424 0.0483 1.8861
C 1.2278 0.0 2.4946
C 2.4719 0.2691 4.617
C -0.1142 0.0562 6.1157
F -0.8659 -0.9632 6.5519
S 0.0 0.0 0.0
N 2.4127 -0.0556 1.8329
Au 0.5631 -2.1971 -0.4802
H 3.2624 -0.3347 2.3057
H 2.3832 -0.0781 0.8198
O 2.9173 1.2758 5.043
Cl 3.4713 -1.2659 4.6436
F -0.6191 1.1884 6.6188
F 1.1055 -0.1137 6.6565
18
Energy=1.8472805802490355
C 0.0 0.0 1.7798
C 1.1897 0.0 2.5429
C 1.1473 0.0538 3.9373
C 2.5194 -0.0802 1.875
O 2.9882 -0.9666 1.254
C -1.2232 -0.0094 2.4846
S 0.0 0.0 0.0
Cl 3.4942 1.4628 2.1571
Au 1.3186 1.8441 -0.4567
C -1.2863 -0.0099 3.891
C -0.078 0.0301 4.5984
H -0.1034 0.0476 5.6901
C -2.605 -0.0268 4.6123
H 2.0789 0.1009 4.5035
H -3.1881 -0.9228 4.3464
Cl -2.7247 -0.0087 1.596
H -3.2209 0.8411 4.3282
H -2.4573 -0.0128 5.7008
22
Energy=1.8397468980671958
C -0.2493 -0.0342 4.4944
C 0.9922 -0.0194 3.8384
N 1.1098 0.0 2.4903
C 0.0 0.0 1.781
N -1.2388 0.0034 2.2969
S 0.0 0.0 0.0
Au 2.2416 0.1118 -0.4933
C -1.376 -0.0034 3.6071
N -0.38 0.0077 5.8705
O -2.6138 0.0461 4.1005
H -3.2013 0.0945 3.3268
C 2.2869 -0.0434 4.6091
H 0.5452 -0.0082 6.3169
N -1.3447 -0.8326 6.4398
H -1.6688 -0.3865 7.2967
N -0.8785 -2.1479 6.632
O 2.3383 0.0046 5.838
N 3.3846 -0.132 3.8268
H -0.4664 -2.3004 7.5568
H -1.6505 -2.799 6.5016
H 3.2618 -0.1585 2.8211
H 4.2965 -0.1489 4.2629
21
Energy=2.1695500123045717
C -0.0 -0.0 1.7695
C -1.215 -0.0819 2.4975
C 1.2499 0.0 2.456
C -1.1621 -0.1906 3.8896
S 0.0 0.0 0.0
C 1.2755 -0.1026 3.8712
C -2.529 -0.0296 1.8039
C 0.0657 -0.2016 4.5555
H -2.5142 0.4546 0.8163
H -2.0895 -0.2386 4.4641
N 2.4173 0.1561 1.7543
N -3.6472 -0.4728 2.2254
H 0.0843 -0.2755 5.6461
C 2.594 -0.0894 4.5955
H -3.5337 -0.9364 3.1373
H 3.2395 -0.9325 4.2871
Au 0.583 2.1903 -0.5125
H 3.1568 0.8388 4.3928
H 2.452 -0.1667 5.6822
H 2.3554 -0.0071 0.7531
H 3.2855 -0.1108 2.1986
21
Energy=1.8817503605279573
C 1.1487 0.0 2.5921
C 1.0495 0.0789 4.0013
C 0.0 -0.0 1.7807
C -0.2275 0.1791 4.615
C 2.4914 -0.1157 1.9337
C 2.3015 0.0734 4.7807
C -1.3764 0.1734 3.8028
O 3.0967 0.6941 1.3343
C -1.2515 0.077 2.4261
O 3.4059 0.1005 4.2854
N -0.3288 0.2941 6.0069
S 0.0 0.0 0.0
Cl 3.0648 -1.8917 1.9613
H -2.1502 0.059 1.8069
Au 1.1264 -1.9691 -0.471
H -2.3552 0.2393 4.27
H 0.5368 0.3405 6.5289
C -1.4625 0.3654 6.7896
O -2.6087 0.339 6.4107
H -1.1856 0.455 7.8671
H 2.2125 0.0321 5.8944
16
Energy=1.3038835220476797
C -1.2708 -0.0108 2.4501
C -0.0 0.0 1.7775
N -1.323 -0.0427 3.7765
N 1.119 -0.0 2.476
N -2.449 -0.0201 1.7541
S 0.0 0.0 0.0
H -2.4452 0.3269 0.8017
Au 2.2159 0.5218 -0.3864
C 1.0492 -0.0347 3.8143
C -0.1783 -0.0669 4.4781
H -3.2817 0.1534 2.3055
C -0.2846 -0.1106 5.9759
H 1.9941 -0.0285 4.3651
H -0.8138 -1.0231 6.2955
H 0.7051 -0.0927 6.4538
H -0.8726 0.7455 6.3438
23
Energy=3.430896140486181
C 1.1252 0.0769 3.8917
C -0.0806 0.1921 4.5811
C -1.2911 0.2052 3.8486
C 1.2054 0.0 2.4988
F 2.2925 0.0455 4.5823
C 0.0 -0.0 1.7686
O -0.1411 0.2447 5.9422
C -1.2253 0.0851 2.4554
N -2.4826 0.3691 4.5431
H -2.422 0.1108 5.5226
H -2.1456 0.0736 1.8687
O 2.402 -0.1334 1.8783
C 0.4078 1.4168 6.5613
H -3.3108 0.0103 4.0824
H 3.0953 -0.1339 2.5546
H 1.4902 1.4692 6.3578
H -0.065 2.3127 6.1198
S 0.0 0.0 0.0
C 0.1407 1.33 8.048
H 0.6015 0.4238 8.4698
Au 0.9812 -2.0231 -0.5244
H -0.9407 1.2946 8.2514
H 0.5623 2.2074 8.5623
22
Energy=3.3648715456670035
C -0.0255 0.1341 4.589
C -1.2482 0.0194 3.8668
C 1.1919 0.0784 3.9074
C 0.0544 0.4639 6.0611
C 1.2234 -0.0 2.4811
C -1.2122 -0.0076 2.4745
N 2.4368 0.0693 4.5538
F -1.0708 1.0378 6.5367
C 0.0 0.0 1.7693
C -2.5236 -0.2498 4.5745
H -2.1424 -0.0774 1.9131
O -2.6629 -0.8592 5.5837
S 0.0 0.0 0.0
Au 0.4187 -2.2214 -0.5085
H 2.4295 -0.1101 5.5508
H 3.0686 0.8261 4.2977
N 2.4318 -0.0662 1.8601
H 0.8793 1.1794 6.2309
F 0.3309 -0.6424 6.8163
Cl -3.9911 0.4117 3.7163
H 3.2057 -0.439 2.3992
H 2.4299 -0.205 0.8548
25
Energy=3.2609411496377225
C 1.3111 -0.2177 3.8546
C 1.2531 0.0 2.4479
C -0.0 0.0 1.7631
N 2.4047 0.2316 1.7526
C -1.1989 -0.1562 2.5039
H 3.2547 -0.1907 2.1141
C -1.1175 -0.4609 3.8697
C 0.1176 -0.5089 4.5346
H 2.2975 0.208 0.7408
C 0.0972 -0.8147 6.0096
O 0.7848 -0.2848 6.8431
O -0.8029 -1.7569 6.3722
C 2.6343 -0.127 4.5381
H 3.1813 0.7687 4.2158
S 0.0 0.0 0.0
H 2.5447 -0.134 5.6251
H -1.1826 -2.1598 5.5771
Cl 3.7514 -1.5343 4.1026
N -2.4541 -0.0787 1.9052
H -2.0455 -0.5714 4.4365
H -3.2051 -0.3987 2.5134
N -2.7483 1.0359 1.1163
H -3.295 1.7323 1.6243
Au -0.0023 2.2552 -0.5316
H -3.2337 0.7603 0.2652
29
Energy=1.6321032300810911
N -2.86 -0.6144 0.8193
H -2.0803 -1.0212 0.3098
C -2.625 0.0644 1.9828
C -1.2182 0.0665 2.4991
O -3.5235 0.5936 2.6228
C -4.1325 -0.5321 0.1343
C -3.9454 0.2648 -1.1659
C -0.0 0.0 1.7759
H -4.7871 0.0598 0.7897
F -3.3597 1.4594 -0.8535
C -1.0703 0.2037 3.8906
C -4.7335 -1.9177 -0.1008
H -1.9804 0.3127 4.4894
H -4.1009 -2.5058 -0.7837
H -4.8048 -2.4521 0.8568
F -3.0353 -0.41 -1.9529
H -5.7425 -1.855 -0.5341
S 0.0 0.0 0.0
Au 2.2557 -0.3228 -0.3981
N 1.1765 0.0 2.4049
C -5.1917 0.5324 -1.9779
N 0.0902 0.2089 4.5265
H -5.9413 1.0482 -1.3612
C 1.1805 0.0827 3.7452
N 2.3813 0.0376 4.3683
H -4.9229 1.1753 -2.8278
H 3.2291 0.0314 3.8201
H 2.4115 0.1754 5.3687
H -5.6177 -0.4041 -2.3604
19
Energy=3.0229992418126077
C -1.223 -0.0444 2.4944
C -0.0 -0.0 1.7631
C 1.2226 0.0 2.4613
S 0.0 0.0 0.0
C -1.2009 -0.0908 3.9133
Au 0.0882 2.2504 -0.538
C 0.0569 -0.0633 4.5295
C 1.2691 -0.024 3.8444
F 0.0739 -0.0938 5.8763
F 2.3688 0.0676 1.7764
H 2.2158 -0.0116 4.3833
N -2.4252 -0.0954 1.7938
H -2.2665 -0.0469 0.7853
N -2.3527 -0.2342 4.6703
N -3.5118 0.6582 2.2772
H -3.1683 0.1804 4.2219
H -2.2357 -0.0034 5.6503
H -3.4956 1.6178 1.9182
H -4.3783 0.216 1.9743
25
Energy=2.59930530075975
C -1.2045 -0.1273 3.9021
C 0.034 -0.1772 4.5708
C -1.2032 -0.0537 2.5019
C 0.0 -0.0 1.7635
C 1.2507 0.0 2.4499
S 0.0 0.0 0.0
C 1.2267 -0.109 3.8581
O -2.3458 -0.2183 4.6363
Cl 2.7579 -0.1754 4.713
C -3.157 0.9612 4.769
Au 0.4009 2.2346 -0.4728
N 2.4209 0.148 1.7679
H 3.2814 -0.0667 2.256
C 0.0436 -0.3873 6.0615
O -0.147 -1.4447 6.5975
Cl -2.729 -0.0627 1.6686
O 0.3015 0.7511 6.7296
H 2.3796 -0.0131 0.7663
H -3.3388 1.4003 3.7756
H -4.1198 0.5894 5.1484
H 0.3113 0.5238 7.6763
C -2.5582 1.9873 5.714
H -1.5791 2.3417 5.358
H -2.4197 1.5684 6.7216
H -3.23 2.8576 5.7878
22
Energy=3.505047665885472
C 1.1896 -0.0917 3.9435
C -0.098 -0.0289 4.6052
C 1.2195 -0.0 2.4982
C -1.3134 0.033 3.8281
C 0.0 0.0 1.7474
N -0.2541 0.0064 5.9273
H 0.5398 -0.0742 6.5486
C -1.2375 0.0437 2.4218
O -2.3678 0.1181 1.7227
C -2.6258 0.0885 4.4539
S 0.0 0.0 0.0
N 2.3654 0.0847 1.814
H -1.2258 0.0464 6.2651
O -2.8526 0.105 5.6631
H 3.2475 0.0885 2.3191
H 2.3144 0.0734 0.8009
C 2.4859 -0.2235 4.5866
H -2.1226 0.1036 0.7722
Au 0.1558 2.2537 -0.6011
O 3.5715 -0.0721 4.0879
H -3.476 0.117 3.7414
Cl 2.553 -0.7919 6.3406
20
Energy=3.4088810651460326
C 1.156 -0.0 2.6305
C 0.0 -0.0 1.7846
C -1.2864 0.0409 2.3322
C 0.9556 0.0109 4.0434
S 0.0 0.0 0.0
Au 0.7034 -2.1395 -0.5512
C -1.4724 0.1155 3.7167
C 2.5892 -0.0078 2.1673
H -2.1471 0.008 1.6648
C -0.3777 0.0963 4.5581
O 3.5105 -0.3498 2.9176
H -2.4816 0.1639 4.1365
N 1.9572 -0.0309 4.952
H 2.8907 -0.2249 4.5908
O -0.4664 0.1343 5.9162
H 1.7164 -0.0512 5.9318
N 2.8721 0.4259 0.9159
H 2.1395 0.6064 0.235
H -1.3936 0.1802 6.1824
H 3.841 0.3623 0.6274
18
Energy=3.3276081301392724
C 0.0 0.0 1.7713
C -1.1898 0.0315 2.5459
C -1.146 0.0288 3.9426
C 1.2038 0.0 2.5013
C 1.2633 -0.0078 3.8857
C 0.0758 0.0079 4.6399
H 2.244 -0.0237 4.365
N 0.1086 -0.0332 6.016
H -2.0849 0.0556 4.4958
H -0.7328 0.2256 6.5149
S 0.0 0.0 0.0
Au 1.3009 -1.8343 -0.5305
F 2.3673 -0.0332 1.8429
H 0.9711 0.2231 6.479
C -2.5238 0.1525 1.8856
O -2.7298 0.6556 0.8089
O -3.5254 -0.343 2.6488
H -4.345 -0.1772 2.153
28
Energy=1.7502241085381611
C 1.0885 0.0256 3.9641
C -0.1537 0.0883 4.5982
C 1.1634 0.0 2.5734
H 1.9865 0.0007 4.5801
C 0.0 0.0 1.7703
C -1.3325 0.1098 3.8343
Br 2.8932 -0.1022 1.795
C -1.2497 0.0628 2.4335
O -0.1725 0.1879 5.9628
C -0.8916 -0.7737 6.7038
O -2.549 0.1482 4.4572
H -1.8877 -0.9679 6.2811
S 0.0 0.0 0.0
H -0.9995 -0.376 7.7222
C -3.2287 1.4013 4.3918
H -3.4431 1.6755 3.3476
O -2.4063 0.1218 1.7192
C -0.1357 -2.0897 6.7989
F -0.012 -2.6785 5.5968
Au 0.8464 -2.0954 -0.4859
H -2.6289 2.1948 4.8691
C -3.0751 -1.1244 1.5492
H -3.3709 -1.5477 2.5235
H -2.4336 -1.8403 1.0093
H -3.9721 -0.9222 0.9491
F 1.0965 -1.9265 7.2967
F -0.8038 -2.934 7.6031
H -4.1715 1.2776 4.9415
17
Energy=0.8280575702130781
C 1.2073 0.0 2.52
C -0.0 0.0 1.7679
C 1.1588 0.1206 3.9149
C -1.2209 0.1025 2.4512
S 0.0 0.0 0.0
O 2.3527 -0.1498 1.83
C -0.0796 0.2463 4.5427
H 2.0552 0.1243 4.5322
C -1.2786 0.2403 3.8384
H -2.2249 0.3337 4.3721
Au 0.9072 -2.0521 -0.5399
F -0.102 0.3678 5.8765
H -2.1413 0.0805 1.8649
C 3.586 -0.1411 2.5159
H 3.7456 0.8124 3.0487
H 3.6551 -0.9726 3.2389
H 4.3646 -0.2624 1.7522
16
Energy=2.3372905869040905
C -0.0071 -0.1163 4.4082
N 1.1822 -0.0605 3.8671
C 1.2147 -0.0 2.5178
C -0.0 0.0 1.7602
N -1.1983 -0.1115 3.8421
C -1.1749 -0.0504 2.5219
S 0.0 0.0 0.0
S -0.0218 -0.1604 6.246
F -2.342 -0.0262 1.9138
Au 0.3098 2.2448 -0.4684
O 1.2836 -0.5711 6.7298
N 2.4118 0.0911 1.9217
O -1.2588 -0.7628 6.7069
Cl -0.1812 1.9509 6.5489
H 3.246 0.0444 2.4933
H 2.4642 0.0512 0.9102
20
Energy=2.313837424395387
C -1.2213 0.0504 2.4845
C 0.0 0.0 1.7683
C 1.2429 0.0 2.4709
C -1.2003 0.1582 3.8749
S 0.0 0.0 0.0
Au 0.0197 -2.2598 -0.5096
Cl -2.7366 -0.0378 1.6466
C 1.2492 0.0702 3.8895
N 2.4114 -0.1594 1.7392
C 0.0272 0.1682 4.5491
Cl -2.6703 0.2512 4.8057
H 0.011 0.2188 5.6391
H 2.2081 -0.2296 0.7402
N 3.5225 0.6342 2.071
H 4.3756 0.117 1.8667
C 2.5169 -0.0402 4.6955
H 3.5292 1.4986 1.5227
H 3.126 -0.887 4.3415
H 3.1491 0.852 4.5942
H 2.2798 -0.1996 5.7575
17
Energy=2.953549849464898
C -0.0445 -0.115 4.5224
C -1.2761 -0.1245 3.8484
C -1.2554 -0.0132 2.4332
N -2.5006 -0.1701 4.4811
H -2.4653 -0.3587 5.4782
C -0.0 -0.0 1.783
N -2.4682 0.0271 1.7611
H -3.1721 0.5943 2.2317
N 1.1518 0.0 2.446
H -3.2061 -0.715 3.9911
C 1.1485 -0.0289 3.781
C 2.4314 0.0304 4.434
S 0.0 0.0 0.0
N 3.4701 0.082 4.9484
Au 2.0366 1.0088 -0.3982
H -2.3832 0.2672 0.7754
Br -0.0125 -0.2338 6.419
19
Energy=1.5004832917208795
C -1.1555 0.0433 2.5686
C -1.0697 0.126 3.9581
H -1.979 0.1593 4.5583
C 0.174 0.1664 4.6058
C 0.0 -0.0 1.7668
C 1.271 0.0 2.4098
C 1.3277 0.0868 3.8115
O 2.3961 -0.0641 1.7032
N 2.6508 0.0684 4.454
O 3.4138 -0.8262 4.1415
C 0.2332 0.2839 6.1049
H 2.1386 -0.0508 0.7558
H -0.7582 0.1027 6.5416
H 0.5748 1.2877 6.3983
S 0.0 0.0 0.0
I -3.0831 -0.0578 1.6992
O 2.884 0.9439 5.2744
Au -0.0453 -2.2616 -0.498
H 0.9466 -0.4291 6.5444
25
Energy=4.19971800157444
C -1.0421 0.3208 3.9441
C -1.1746 0.105 2.5627
C 0.0 0.0 1.7682
C 0.229 0.3586 4.5632
C 1.3899 0.2239 3.7789
C -2.5788 -0.0374 1.9761
N 0.4294 0.5817 5.9326
H -0.4353 0.7352 6.446
C 1.297 -0.0 2.3831
N 2.4102 -0.2183 1.6421
S 0.0 0.0 0.0
F -3.2322 1.1406 1.9886
H 0.9733 -0.159 6.3751
H 2.3077 -0.1726 0.6342
I -2.7114 0.6905 5.2474
H 3.3115 -0.14 2.1053
Au 0.2747 -2.2452 -0.5321
F -3.307 -0.9079 2.7055
N 2.6003 0.3829 4.4732
F -2.6261 -0.4967 0.7265
H 2.5094 0.9057 5.3496
N 3.8133 0.235 3.9333
C 4.8471 0.6162 4.5878
H 4.7832 1.086 5.5837
H 5.8294 0.4626 4.1361
20
Energy=4.336422891945748
C -1.2093 0.1598 3.8728
C -1.2064 0.0893 2.477
C 0.0031 0.1481 4.5935
C -2.5131 0.112 4.6215
F -3.5723 0.294 3.799
C 0.0 0.0 1.7715
F -2.568 1.0951 5.5852
C 1.2318 0.0792 3.8747
H -2.1514 0.083 1.9359
C 1.2134 0.0 2.486
S 0.0 0.0 0.0
N 0.0804 0.2335 5.9697
Au 0.0325 -2.241 -0.5634
N 2.4131 0.0561 4.6296
H 2.4371 0.7844 5.3432
H -0.775 0.3178 6.5019
H 0.8296 -0.2961 6.4042
H 2.1545 -0.0446 1.9335
H -2.658 -0.8484 5.1524