13
Energy=0.7836049951614685
Au -0.0665 2.2431 -0.5231
S 0.0 0.0 0.0
C 0.0 0.0 1.7806
C -1.2097 -0.0886 2.491
H -2.152 -0.0915 1.9403
C -1.2124 -0.1707 3.8821
C 1.2124 0.0 2.492
H 2.1529 0.0658 1.9421
C 0.0049 -0.1649 4.5714
H -2.149 -0.2393 4.4371
C 1.2199 -0.0812 3.8831
Cl 0.0078 -0.264 6.3126
H 2.1585 -0.0808 4.4389
30
Energy=3.3500031455951422
Au 2.322 0.0047 -0.2026
S 0.0 0.0 0.0
C 0.0 0.0 1.7536
N 1.0593 0.0 2.516
N -1.1487 0.0463 2.5791
C -0.6228 0.0976 3.884
N 0.6799 0.0713 3.8385
N -2.4577 -0.0968 2.3502
N -1.3741 0.1085 5.0325
C -2.9379 -0.2049 1.1703
C -0.7207 -0.2885 6.279
H 0.1952 -0.8398 6.0444
H -2.3122 -0.2171 0.2626
H -1.4103 -0.9231 6.8568
H -0.4626 0.597 6.8819
C -4.3771 -0.4139 0.9479
O -4.6442 -1.3007 -0.0289
C -2.6185 0.7203 5.1134
C -5.428 0.2218 1.5649
H -3.8403 -1.7699 -0.2965
C -5.3174 1.4057 2.4452
H -3.0362 1.1759 4.2061
C -3.3529 0.7991 6.2126
O -4.3039 1.9397 2.8534
H -6.3186 1.8187 2.6997
C -6.8136 -0.2139 1.2544
H -6.8986 -1.1311 0.6283
O -7.8031 0.3566 1.6608
C -4.1095 0.9077 7.257
C -4.8511 1.0004 8.3141
32
Energy=2.525133101626073
Au 1.2738 -1.8448 -0.4884
S 0.0 0.0 0.0
C 0.0 0.0 1.8535
H 1.0304 -0.0 2.2231
C -0.7708 -1.1542 2.4151
C -0.0608 -2.3221 2.8004
O 1.2613 -2.3145 2.6689
H -0.4907 0.952 2.0879
H 1.5814 -3.2429 2.9113
C -2.1685 -1.1838 2.5228
C -3.0612 -0.053 2.1653
C -2.7914 -2.3628 2.9887
C -0.7944 -3.4495 3.2875
N -2.1361 -3.4431 3.3537
H -3.886 -2.4009 3.054
O -2.7203 1.0436 1.7842
H -4.148 -0.2967 2.2875
C -0.0895 -4.6719 3.7171
N 1.2172 -4.7155 3.4302
C -0.6801 -5.7938 4.407
C 0.2345 -6.8696 4.5928
N 1.5396 -6.8175 4.2224
N -1.948 -5.8316 4.8498
N 2.0191 -5.754 3.6822
C -2.3459 -6.9432 5.4503
C -0.205 -8.0803 5.2277
C -1.5376 -8.0693 5.6404
F -2.0267 -9.1617 6.2511
H -3.3755 -6.9831 5.8261
N 0.6323 -9.1182 5.4003
H 1.5918 -9.0114 5.0921
H 0.3268 -9.9516 5.8817
31
Energy=1.9147178654450157
Au 1.2748 -1.843 -0.5374
S 0.0 0.0 0.0
C -0.0 0.0 1.7716
C -1.2259 0.0832 2.4586
H -2.1524 0.061 1.8831
C -1.2545 0.1776 3.8429
C 1.1764 -0.0 2.5327
F 2.3627 -0.1439 1.9257
C -0.0651 0.2107 4.5948
C 1.1731 0.088 3.9315
C -0.234 0.338 6.0659
H -2.2056 0.2353 4.3735
O 2.3337 -0.0329 4.621
Cl 1.022 1.3388 6.9075
C 3.3087 0.996 4.4697
O -1.1593 -0.0733 6.6875
H 3.6707 1.042 3.4303
H 2.8417 1.9669 4.7174
C 4.4507 0.7172 5.4044
C 4.2959 -0.0628 6.5468
H 3.3447 -0.5329 6.7873
C 5.7243 1.2645 5.1777
H 5.9208 1.8784 4.2954
C 5.3602 -0.2579 7.4146
N 5.1446 -1.0255 8.6456
O 4.4297 -2.0111 8.5383
O 5.6396 -0.6055 9.6702
N 6.6211 0.2609 7.187
C 6.7669 1.0344 6.0496
O 7.6043 0.0271 7.9244
H 7.7821 1.4066 5.9225
22
Energy=1.9291414270117555
Au 0.0011 -2.2511 -0.5031
S 0.0 0.0 0.0
C 0.0 -0.0 1.7623
C 1.1888 0.0 2.5121
F 2.3372 -0.1006 1.8463
C -1.1889 0.0716 2.5087
C 1.2382 0.0772 3.9112
F -2.3516 0.0456 1.8683
C -1.2135 0.1528 3.8951
C -0.004 0.1611 4.609
H -2.1812 0.2078 4.3881
C 2.5592 0.0665 4.5881
O 0.0519 0.2412 5.9358
H 3.4164 0.0015 3.8771
C -1.1395 0.3255 6.7134
O 2.7508 0.1193 5.7812
H -1.7674 -0.5635 6.5228
H -1.7157 1.2179 6.4092
C -0.7279 0.406 8.168
H -0.0994 1.2918 8.3416
H -0.1499 -0.4848 8.4542
H -1.6193 0.4722 8.81
23
Energy=3.953476635849932
Au 2.2629 0.007 -0.6039
S 0.0 0.0 0.0
C -0.0 -0.0 1.7407
N 1.1624 -0.0 2.463
H 2.0612 0.001 1.9769
N -1.1679 -0.0006 2.3418
C -1.1932 -0.0007 3.6788
C 1.1552 -0.0017 3.8301
N 2.3927 -0.003 4.4134
C -0.0633 -0.0014 4.4978
O 3.4342 0.0036 3.5043
H 0.0028 -0.0017 5.6259
C 2.9669 -0.0142 5.7065
Cl -2.7495 0.0005 4.4136
N 4.2613 -0.0131 5.6189
C 4.6469 -0.0026 4.3029
C 2.1764 -0.0225 6.9851
N 0.9298 -0.0104 7.0829
C 3.1055 -0.0466 8.2331
O 5.6976 0.0016 3.7536
F 3.8917 -1.1387 8.2476
F 3.9046 1.0349 8.2813
F 2.3741 -0.0595 9.3439
24
Energy=0.7286337331849929
Au 1.5591 -1.6293 -0.4792
S 0.0 0.0 0.0
C 0.0 -0.0 1.7944
C 1.1241 -0.0 2.6672
C 2.5457 -0.1967 2.1675
C 0.8567 0.243 4.0347
C -0.4383 0.4137 4.5366
C -1.2923 0.15 2.34
N 1.9413 0.4515 5.0036
O 2.8621 -0.3729 5.0608
C 3.0037 -1.6717 2.1296
H 2.6304 0.21 1.1536
O 3.139 -2.2802 3.2841
H -2.138 0.1068 1.6509
H 3.259 0.3449 2.8059
C -1.5473 0.3455 3.6963
C -2.9338 0.4795 4.2607
H 2.9808 -1.6512 4.0327
O 3.2413 -2.276 1.0914
F -0.6295 0.5995 5.844
H -3.686 0.4328 3.462
O 1.8876 1.4346 5.7039
H -3.1445 -0.3232 4.9855
H -3.0512 1.4339 4.7978
25
Energy=0.24599304334081198
Au 2.2955 -0.0228 -0.3123
S 0.0 0.0 0.0
C -0.0 -0.0 1.7731
N 1.1255 0.0 2.4403
N -1.2279 -0.0117 2.386
C 1.0654 -0.0262 3.7978
H 2.0326 -0.0295 4.3113
C -0.0959 -0.0573 4.5216
C -1.3535 -0.0838 3.8042
C -2.4873 -0.0197 1.6304
O -2.4638 -0.1672 4.313
C -0.1494 -0.1307 6.0195
H -2.3482 0.5499 0.7024
H 0.8457 0.0818 6.4385
C -2.9309 -1.4467 1.3377
H -3.2378 0.4817 2.2525
H -0.8476 0.6314 6.4004
H -2.1875 -1.9897 0.7417
C -0.6498 -1.5012 6.5323
H -3.1459 -1.9869 2.2668
Br -4.5859 -1.4315 0.2917
C 0.2148 -2.6019 6.1073
H -1.6685 -1.6761 6.1526
N 0.9242 -3.443 5.7443
H -0.7051 -1.4996 7.6329
29
Energy=4.246088277451705
Au 2.3021 -0.0077 -0.2947
S 0.0 0.0 0.0
C -0.0 -0.0 1.7388
N 1.0354 -0.0 2.5058
S -1.6074 -0.0129 2.5223
C 0.714 -0.0114 3.8744
O 1.5316 0.0585 4.7607
C -0.7856 -0.0559 4.0914
C -1.4505 -0.0079 5.2683
C -0.8994 -0.1203 6.6185
C 0.0489 -1.0771 6.992
C -1.396 0.7205 7.6411
H -2.1581 1.4646 7.393
C -0.9092 0.6429 8.9322
C 0.0776 -0.3095 9.2818
O -1.3106 1.4382 9.9724
F 0.4556 -1.9675 6.085
C 0.5641 -1.2002 8.2997
H -1.9253 2.1168 9.6679
C 1.5653 -2.2362 8.5583
H -2.5338 0.157 5.2263
O 0.5198 -0.3393 10.5427
H 0.0623 0.3697 11.0251
H 1.9348 -2.768 7.6666
N 2.0066 -2.5362 9.7219
C 3.0308 -3.4722 9.8192
N 4.0373 -3.4865 9.0363
H 4.6869 -4.2286 9.3148
H 2.899 -4.1559 10.6789
32
Energy=2.3073147341133007
Au 1.7213 -1.5567 -0.6633
S 3.7142 -2.639 -1.2869
C 4.7205 -1.2289 -1.2507
N 4.3918 -0.0 -1.2046
S 6.5713 -1.4322 -1.2377
C 6.7621 0.2674 -0.5411
C 5.4778 0.9667 -1.0029
C 8.0703 0.8978 -0.9767
H 5.6619 1.4955 -1.957
H 6.7316 0.0993 0.5455
H 8.1213 0.961 -2.0734
C 5.0128 2.0314 0.0232
H 8.1425 1.9074 -0.5478
O 7.0095 -2.4498 -0.2827
O 7.0369 -1.4364 -2.6298
N 3.6207 2.0503 0.114
H 3.2085 1.346 -0.5077
C 2.8356 2.4474 1.1875
C 1.5319 1.6728 1.1511
H 8.9255 0.3032 -0.6229
O 3.1461 3.1681 2.097
O 1.0785 1.3471 -0.0818
O 5.7756 2.7088 0.6607
C 0.9365 1.0447 2.2161
C 0.0 -0.0 1.813
O 1.1906 1.3247 3.4948
C 1.9621 0.3749 4.2428
H 2.9632 0.2638 3.7956
S 0.0 0.0 0.0
S -0.9171 -1.0169 2.69
H 1.4552 -0.5998 4.2894
H 2.0582 0.7918 5.2521
19
Energy=4.1545404945416795
Au 0.7484 2.124 -0.529
S 0.0 0.0 0.0
C 0.0 0.0 1.7667
C 1.1612 0.0 2.5804
Br 2.8872 0.1668 1.8122
C 1.0812 -0.1165 3.962
C -1.2275 -0.0741 2.4372
H 1.995 -0.1431 4.5528
C -0.1603 -0.2505 4.6249
H -2.1394 -0.0148 1.8381
C -1.346 -0.1835 3.829
C -0.0982 -0.4442 6.0579
C -2.7125 -0.0583 4.3698
H -3.5008 -0.0363 3.5746
O -3.0128 0.0667 5.5383
O 1.0737 -0.24 6.7522
N -1.0099 -1.1075 6.7357
H 1.1298 0.6974 6.9934
N -1.7599 -1.6961 7.3535
22
Energy=3.244059225570343
Au 0.6707 -2.168 -0.5085
S 0.0 0.0 0.0
C -0.0 -0.0 1.7657
C 1.2316 -0.0 2.4784
N 2.4162 -0.1332 1.8049
C -1.2302 0.0515 2.4479
H 2.3651 0.0487 0.8065
C 1.1605 0.0686 3.8961
H 3.2708 0.1501 2.2666
H -2.1393 0.0306 1.8493
C -1.2713 0.1368 3.8382
C -0.0622 0.142 4.5524
C 2.4262 0.0136 4.707
H -0.1012 0.1984 5.6397
O -2.4065 0.2122 4.5814
C -3.647 0.1903 3.9156
F 3.0548 -1.1721 4.5788
H -3.7895 -0.7451 3.3441
F 3.3216 0.9538 4.3043
F 2.2136 0.2129 6.0133
H -3.7568 1.0456 3.2242
H -4.4217 0.2566 4.6907
17
Energy=1.89939304358012
Au 1.2517 -1.8736 -0.5062
S 0.0 0.0 0.0
C -0.0 -0.0 1.7764
C 1.1547 0.0 2.5815
C -1.2305 0.0558 2.4444
H -2.1455 0.0365 1.8548
C -1.3317 0.1299 3.8423
C -0.1378 0.1002 4.5938
C 1.1027 0.0115 3.9682
F -0.1574 0.138 5.917
C -2.6389 0.2175 4.5519
H 2.0095 -0.0348 4.5715
Cl -4.0858 0.1771 3.4586
O -2.7971 0.3081 5.7245
N 2.4869 -0.0756 1.9582
O 2.8478 0.8809 1.3071
O 3.1119 -1.1095 2.1375
16
Energy=-1.2737329982020058
Au 1.1496 1.9439 -0.4373
S 0.0 0.0 0.0
C 0.0 -0.0 1.8471
H -0.553 0.8664 2.2309
H -0.5431 -0.9202 2.1106
C 1.3904 -0.0 2.4093
N 1.9012 1.1688 2.7763
C 2.1824 -1.1745 2.5028
C 3.1593 1.1466 3.2295
H 3.6055 2.097 3.5413
N 3.9309 0.0706 3.339
C 1.685 -2.5235 2.0794
N 3.43 -1.1006 2.9675
H 0.819 -2.8405 2.6839
H 1.3631 -2.5014 1.0263
H 2.4911 -3.2576 2.2035
14
Energy=-0.38884863785973944
Au -0.0195 2.2497 -0.4945
S 0.0 0.0 0.0
C 0.0 -0.0 1.7832
C -1.2077 -0.0881 2.487
C 1.2124 -0.0 2.492
H -2.1537 -0.0927 1.946
C -1.2117 -0.1669 3.8893
H 2.1675 0.0627 1.9691
C 1.2059 -0.077 3.8788
C 0.0075 -0.1602 4.5994
C -2.4585 -0.2518 4.5919
Cl 0.051 -0.2525 6.3207
N -3.4861 -0.3173 5.1265
F 2.3608 -0.0725 4.5393
21
Energy=0.5344185646343644
Au 1.5105 1.6422 -0.5589
S 0.0 0.0 0.0
C -0.0 -0.0 1.7762
C 1.1706 -0.0 2.5492
C -1.2392 -0.0902 2.4265
H -2.1591 -0.0631 1.8432
C -1.3161 -0.2017 3.8161
C -0.1362 -0.1735 4.5692
H 2.1428 0.0482 2.0607
C 1.1126 -0.0611 3.9398
C -2.6896 -0.3282 4.4573
C 2.4173 -0.0114 4.7193
N -0.2061 -0.2547 6.0455
F 3.4541 -0.3315 3.9257
O 0.217 0.7024 6.663
F -3.6463 0.0878 3.6108
F 2.6562 1.2099 5.2068
F -2.9692 -1.5936 4.7813
F -2.7839 0.4202 5.5656
F 2.4134 -0.8786 5.7406
O -0.6799 -1.2708 6.513
8
Energy=-0.8842345081970413
Au 2.3047 -0.0009 -0.2663
S 0.0 0.0 0.0
C -0.0 0.0 1.7458
N 1.0372 -0.0 2.5742
N 0.5288 0.0 3.8256
N -0.7529 0.0001 3.8163
N -1.1158 0.0001 2.5115
H -2.0934 0.0 2.2421
15
Energy=0.2220705692607671
Au 2.2061 0.2832 -0.5848
S 0.0 0.0 0.0
C 0.0 0.0 1.775
C 1.1218 -0.0 2.6115
H 2.1307 0.0089 2.2029
C -1.2649 -0.0153 2.3977
C 0.9566 -0.0084 3.9956
N 2.1634 -0.0018 4.844
O 3.2486 0.0181 4.2845
C -0.2978 -0.023 4.6034
F -2.3538 -0.0201 1.6243
C -1.4219 -0.0277 3.78
H -2.4331 -0.0384 4.19
H -0.3739 -0.0298 5.6892
O 2.0012 -0.0162 6.0531
58
Energy=8.465532996706848
Au 2.3221 0.0003 -0.1849
S 0.0 0.0 0.0
C -0.0 -0.0 1.779
N 1.1251 -0.0 2.4187
N -1.2472 -0.0003 2.3637
C -2.4634 0.0003 1.5564
C -1.3879 -0.0006 3.782
C 1.1611 0.0003 3.8132
C -0.1448 0.0014 4.5351
O -2.5232 -0.0029 4.2488
H -2.5029 0.8947 0.9166
H -2.5053 -0.8952 0.9183
H -3.3108 0.0023 2.2497
C -0.0485 -0.0009 5.9231
H 1.0044 -0.0042 6.2288
O 2.2356 -0.0005 4.3941
C -0.9498 -0.0009 7.0079
C -2.3875 0.01 7.0747
C -0.4652 -0.0145 8.3629
H -3.0278 0.0372 6.2025
H 0.5532 -0.0265 8.7417
N -1.5143 -0.0173 9.1885
C -2.6999 -0.003 8.4142
O -1.6093 -0.0304 10.4865
N -3.7734 0.0023 9.2756
C -5.0726 -0.1791 9.0797
C -5.6282 -0.3753 7.7823
N -5.917 -0.1772 10.1704
H -4.9513 -0.3873 6.9312
C -6.9737 -0.5595 7.6127
H -7.3689 -0.7151 6.6104
C -7.2878 -0.3706 10.0194
C -7.8374 -0.5558 8.7411
N -9.2032 -0.738 8.6387
C -5.347 -0.0138 11.5242
C -9.8231 -0.9312 7.3308
C -4.6499 -1.2742 12.0543
H -3.287 0.0409 10.2244
N -8.0453 -0.3761 11.1299
H -4.6485 0.8363 11.4883
H -9.4292 -1.8368 6.8457
C -5.5393 -2.5154 12.0533
H -5.8331 -2.8007 11.03
C -10.0461 -0.7511 9.7592
H -9.6382 -0.0611 6.6835
H -3.7186 -1.4637 11.4969
C -9.3409 -0.5541 11.0509
C -10.1735 -0.5745 12.2496
H -6.1827 0.2622 12.1729
H -5.0069 -3.3738 12.4895
O -11.2515 -0.9141 9.664
C -9.6909 -0.4301 13.4952
H -11.2394 -0.7212 12.0663
H -4.328 -1.0362 13.0818
H -10.8992 -1.0436 7.4975
H -8.6219 -0.2852 13.6716
H -10.354 -0.4543 14.3626
H -6.463 -2.3546 12.6307
21
Energy=0.7301055525352316
Au 1.8021 -1.3933 -0.4487
S 0.0 0.0 0.0
C -0.0 -0.0 1.8541
H -0.5419 -0.8661 2.2535
H -0.5502 0.9126 2.1381
C 1.3633 -0.0 2.5314
O 1.6212 -0.777 3.4493
N 2.2824 0.8845 2.0521
H 2.0401 1.3449 1.1761
C 3.6935 0.7758 2.3954
H 3.7616 0.3964 3.4248
H 4.1775 1.7598 2.3414
C 4.3886 -0.1376 1.4062
C 3.991 -1.5058 1.2274
N 5.209 0.3673 0.5204
N 5.569 -0.3214 -0.5744
N 3.5336 -2.3148 2.1811
N 4.0124 -1.924 -0.0644
H 3.0594 -1.8927 2.9911
N 4.8586 -1.3457 -0.9241
H 3.1777 -3.2167 1.8724
38
Energy=1.6717883698282892
Au 0.3826 2.2236 -0.4935
S 0.0 0.0 0.0
C -0.0 0.0 1.785
C -1.2222 -0.1122 2.481
C 1.2237 -0.0 2.5018
C -2.5165 -0.0785 1.6914
C -1.2215 -0.2575 3.8932
H -2.4274 0.707 0.9342
C 0.0119 -0.2684 4.61
C 1.2147 -0.1365 3.8863
C -2.4698 -0.4202 4.6354
C -2.8501 -1.3957 1.021
Br 2.842 -0.1148 4.8768
C 2.5581 0.1449 1.815
C -3.2345 -1.5349 -0.2768
H -3.3578 0.2101 2.3375
C -3.3722 -0.4228 -1.2698
C -3.529 -2.8902 -0.7836
O 2.8483 1.0515 1.0771
H 3.2933 -0.6573 2.064
O 0.0729 -0.3956 5.9271
H -0.8522 -0.4854 6.2847
N -3.8647 -3.2358 -1.9583
H -3.4301 -0.4425 4.1102
C -2.7668 -2.6027 1.8209
H -2.674 -0.5771 -2.1093
H -3.9183 -2.4279 -2.5771
H -4.3918 -0.4067 -1.6901
H -3.1595 0.5607 -0.8399
O -3.4448 -3.9401 0.1207
N -3.0466 -3.7921 1.4165
H -2.44 -2.5597 2.8628
N -2.4814 -0.5543 5.9158
O -3.7345 -0.7003 6.4369
C -3.68 -0.8755 7.8442
H -3.2229 -0.0007 8.3361
H -3.1157 -1.7849 8.1099
H -4.7229 -0.98 8.1702
23
Energy=1.5950763212043402
Au 1.1043 1.9943 -0.4139
S 0.0 0.0 0.0
C -0.0 0.0 1.7782
C 1.1547 -0.0 2.58
C -1.237 -0.0267 2.4717
O -2.3666 -0.0449 1.7352
C 2.5114 0.17 1.9143
C 1.0519 0.0119 3.989
C -3.5964 0.0178 2.3807
O 2.9687 1.2928 1.7682
F -3.8769 1.2974 2.6795
N -1.3403 -0.0457 3.7896
C -0.2471 -0.0218 4.5175
N 3.0776 -0.9539 1.436
C 2.2885 -0.0022 4.8224
F -4.4979 -0.4216 1.4992
H -3.6167 -0.5853 3.2995
O 3.3485 -0.4353 4.4335
F -0.4381 -0.0614 5.827
H 2.7343 -1.866 1.705
H 3.9985 -0.8824 1.0178
O 2.122 0.5213 6.0441
H 2.9828 0.4545 6.4925
34
Energy=4.040383382787544
Au 1.2786 -1.9162 -0.2474
S 0.0 0.0 0.0
C -0.0 -0.0 1.8406
H -0.4407 0.9668 2.1318
C -0.7726 -1.1671 2.4743
H 1.0344 0.0 2.2102
H -0.8382 -2.0128 1.7783
O -0.1528 -1.6074 3.6983
C 0.8993 -2.4215 3.6167
H -1.7867 -0.8662 2.7671
N 1.3305 -2.8774 2.4537
C 2.4031 -3.6942 2.4523
C 1.5454 -2.7909 4.8327
C 2.8887 -4.2083 1.185
C 3.0558 -4.037 3.6529
H 2.2992 -3.9703 0.2835
H 1.1597 -2.4092 5.7837
C 3.997 -4.9834 1.1015
N 2.5999 -3.5746 4.832
H 4.3221 -5.3383 0.1229
C 4.2745 -4.9074 3.6466
C 4.7536 -5.3685 2.2827
O 4.8463 -5.2185 4.6693
N 5.8348 -6.1016 2.2856
C 6.4296 -6.6115 1.1831
H 6.0347 -6.4403 0.1683
C 7.5644 -7.3665 1.3299
H 7.9205 -7.5084 2.3557
C 8.2956 -7.9659 0.2591
H 7.9359 -7.8211 -0.7674
C 9.4155 -8.7044 0.4732
O 10.1646 -9.3018 -0.4573
H 9.7986 -9.1383 -1.3402
H 9.8084 -8.8735 1.4808
28
Energy=2.7198073646359195
Au 0.6701 -2.1642 -0.4672
S 0.0 0.0 0.0
C 0.0 0.0 1.7801
C 1.1739 -0.0 2.5539
C 2.5109 -0.1586 1.8861
C 1.112 0.0923 3.9601
C -1.2301 0.1128 2.4372
H -2.1549 0.1219 1.8602
O 2.8979 -1.1774 1.3673
O 3.2445 0.962 1.9301
C -1.2908 0.2191 3.8236
N -0.1219 0.1923 4.5757
N -2.4094 0.361 4.5677
H 4.0953 0.7644 1.4989
H -3.317 0.2007 4.1578
O -0.2577 0.2628 5.8498
H -2.2514 0.2942 5.5712
C 2.3227 0.0646 4.761
H 3.2536 0.0067 4.193
C 2.4816 0.1082 6.0991
H 1.6265 0.1755 6.7673
C 3.8682 0.0638 6.6413
O 4.8788 -0.0052 5.9534
N 3.9298 0.1077 8.0067
H 3.0893 0.1687 8.569
N 5.1388 0.0793 8.6992
H 5.6444 -0.7652 8.4181
H 5.7169 0.8523 8.3583
19
Energy=2.253008792777525
Au 0.373 -2.2313 -0.4497
S 0.0 0.0 0.0
C -0.0 0.0 1.774
C -1.1676 0.0833 2.5624
C 1.2336 0.0 2.4273
C -2.5318 0.0353 1.9083
F -2.6882 -1.1263 1.2179
C -1.0705 0.1827 3.9557
F -2.6948 1.0663 1.0428
H -3.3467 0.0874 2.6427
F 2.3743 -0.1116 1.7872
N 0.1563 0.1793 4.5661
C -2.1785 0.3053 4.9575
N 1.3727 0.0638 3.7733
O 2.4292 0.0476 4.3927
H -3.1695 0.3368 4.4964
O 0.3429 0.2569 5.7783
H -2.0312 1.2167 5.5576
H -2.1343 -0.5361 5.6668
24
Energy=1.7539781186025112
Au 0.2615 -2.2297 -0.5823
S 0.0 0.0 0.0
C 0.0 -0.0 1.7517
C -1.2179 -0.0098 2.4284
C -2.4936 -0.1921 1.6321
C 1.2417 -0.0 2.5337
O -3.0122 -1.2646 1.4667
N -1.3591 0.0678 3.7555
H -0.4616 0.0979 4.2562
O 2.3485 -0.1213 1.7984
C -2.62 -0.0135 4.4635
C 3.5998 -0.1411 2.4984
O -3.0093 0.973 1.2226
H 3.5866 -0.9614 3.2342
C 4.6965 -0.3131 1.4701
H -3.0238 -1.04 4.4719
H -3.8092 0.7662 0.7065
O 1.2814 0.0816 3.7609
H 3.7068 0.7972 3.0669
H 4.5714 -1.2578 0.9195
H 4.6816 0.512 0.742
H -3.3705 0.6486 4.0043
H -2.4668 0.3133 5.5004
H 5.6797 -0.325 1.9653
18
Energy=2.03916385271452
Au 1.2222 -1.8834 -0.5288
S 0.0 0.0 0.0
C -0.0 0.0 1.7704
C -1.2174 0.1106 2.4393
H -2.1538 0.0914 1.8832
C 1.2153 0.0 2.5218
C -1.2529 0.2523 3.832
O 2.3617 -0.1361 1.8859
H 3.0747 -0.122 2.581
C -0.0997 0.2561 4.5952
C 1.1239 0.1193 3.9357
H -0.1385 0.355 5.6776
N 2.3316 0.1179 4.7527
N -2.5555 0.3827 4.5084
O 3.4224 -0.0109 4.1702
O 2.231 0.2365 5.9532
O -3.5529 0.3718 3.8066
O -2.5477 0.4924 5.7229
20
Energy=-1.0070474474689206
Au 1.2788 1.8464 -0.4728
S 0.0 0.0 0.0
C -0.0 -0.0 1.8519
H 1.0268 0.0 2.2291
C -0.8003 1.1169 2.4511
H -0.46 -0.9667 2.1027
C -0.2328 2.3587 2.7797
O 1.1075 2.5571 2.5287
C -1.0134 3.4209 3.2663
C -2.1823 0.9857 2.6386
C 1.9894 2.4821 3.5846
F 2.1531 1.1905 3.9628
H 1.6593 3.0633 4.4613
Br -0.2577 5.1159 3.635
F 3.1598 2.9352 3.1326
C -2.3867 3.2245 3.442
C -2.9836 2.0063 3.1355
F -2.7573 -0.1811 2.3332
H -4.0551 1.863 3.2737
F -3.1419 4.2183 3.9027
20
Energy=0.5553647969013629
Au 2.2523 -0.0337 -0.5086
S 0.0 0.0 0.0
C 0.0 0.0 1.741
S 1.5255 0.0 2.6793
C 0.5502 -0.0283 4.1542
C -0.9261 0.005 3.7694
N -1.1125 0.0022 2.3873
C 0.9748 -0.0767 5.434
C 2.438 -0.0805 5.8163
F 2.7902 -1.3189 6.2703
C 0.0045 -0.115 6.5975
F 3.2374 0.2056 4.7578
O -1.8146 0.0415 4.5906
H 2.652 0.6458 6.6164
H -0.7374 -0.9125 6.4703
H -0.5416 0.8342 6.688
O 0.7137 -0.2907 7.8351
C 0.7875 -1.5332 8.3069
O 0.2923 -2.5213 7.8761
F 1.5258 -1.4977 9.4076
45
Energy=1.7366954987992267
Au 2.2364 -0.4791 -0.3293
S 0.0 0.0 0.0
C 0.0 0.0 1.7767
N 1.0898 0.0 2.4689
C 1.0106 -0.0183 3.8457
N -1.2502 -0.0446 2.3646
C -2.4649 -0.0693 1.561
C 2.2209 -0.0415 4.5681
C -3.1015 -1.4114 1.4814
C -2.3759 -2.5395 1.8332
C -0.2166 -0.0148 4.56
C -1.4542 -0.0654 3.7636
H 3.1563 -0.0413 4.0077
C 2.2051 -0.0701 5.9476
C 0.9912 -0.0659 6.6606
C -0.2443 -0.0204 5.9863
H 3.146 -0.095 6.5064
O -2.5972 -0.1454 4.1785
O 1.0013 -0.0906 8.0193
C -4.4403 -1.5724 1.0259
N -2.8081 1.018 1.0167
C -1.5224 0.102 6.7496
H -1.3528 -2.4708 2.1935
H -2.3154 0.6485 6.2276
C -2.9334 -3.8111 1.7155
N -2.1244 -4.9619 2.0712
H 1.9119 -0.0369 8.3374
O -0.987 -4.765 2.4627
N -1.7816 -0.3422 7.9159
H -0.9782 -0.8467 8.3027
C -4.2595 -3.978 1.2664
O -2.6259 -6.0828 1.9558
N -5.0032 -2.8279 0.9782
O -6.2281 -3.0197 0.6246
H -3.6678 0.8668 0.4736
N -5.1438 -0.5052 0.5287
H -7.0329 -1.0349 1.2164
C -6.4149 -0.354 0.6188
N -4.9398 -5.1077 1.1025
C -7.1016 0.7751 -0.0647
H -6.3951 1.3879 -0.6406
H -4.4761 -5.9838 1.3129
H -5.9018 -4.9731 0.7913
H -7.8827 0.3791 -0.7364
H -7.6223 1.4039 0.6783
17
Energy=1.6212415985254687
Au 0.5616 -2.1896 -0.4611
S 0.0 0.0 0.0
C 0.0 -0.0 1.7726
C -1.2372 0.0781 2.4425
F -2.3412 0.0681 1.724
C 1.186 0.0 2.5502
Cl 2.7029 -0.1946 1.7606
C 1.0916 0.0745 3.9517
C -1.3325 0.1469 3.8434
C -0.1469 0.1329 4.58
N 2.2748 0.1057 4.8367
C -2.6251 0.2214 4.5792
O -3.7234 0.2408 4.0857
H -2.4838 0.2591 5.6913
O 3.2621 0.6988 4.4493
H -0.177 0.1645 5.6703
O 2.154 -0.4455 5.9194
23
Energy=0.7739745925418894
Au 1.2528 -1.8803 -0.457
S 0.0 0.0 0.0
C 0.0 -0.0 1.7802
C 1.2716 0.0 2.5461
C -1.2046 0.0705 2.4331
C -2.5382 0.006 1.7021
C 2.5421 0.3134 2.0163
F -2.6318 -1.1227 0.9737
F -2.7134 1.0452 0.8676
C -1.223 0.2153 3.9199
C -0.0946 -0.5218 4.6122
O -2.0736 0.8144 4.5354
F -3.5726 -0.0043 2.5466
C 1.2243 -0.3188 3.9294
C 2.3912 -0.402 4.6811
C 3.6341 -0.1335 4.1046
F 2.3308 -0.72 5.9782
H -0.3666 -1.5959 4.5956
H -0.0549 -0.2157 5.6655
C 3.7107 0.2342 2.77
F 2.6946 0.7245 0.7567
H 4.6701 0.4785 2.3143
F 4.732 -0.2149 4.8485
29
Energy=1.3494865820869064
Au 2.2642 -0.4619 -0.2379
S 0.0 0.0 0.0
C 0.0 0.0 1.7476
N 1.0693 -0.0 2.5396
N 0.6543 0.0095 3.826
N -1.1336 0.0068 2.5154
C -0.6615 0.0116 3.8194
C -2.5271 -0.0701 2.0955
C -1.5329 0.0526 4.94
N -2.3022 0.1005 5.8091
C -2.7609 -1.4272 1.4187
C -2.9757 1.1888 1.3648
O -2.0235 -2.3689 1.5317
C -3.0457 1.2479 -0.05
C -3.2483 2.3224 2.1667
H -3.1831 2.2245 3.2546
C -3.6024 3.5766 1.6276
O -3.9259 -1.4577 0.7587
H -2.851 0.3813 -0.6788
C -3.6405 3.5131 0.2429
C -3.3994 2.516 -0.4757
C -4.2582 -2.7131 0.1614
H -3.8136 4.4418 2.2578
H -3.113 -0.1357 3.0267
C -3.3002 -3.0893 -0.9627
H -4.2682 -3.5202 0.91
H -2.5764 -2.2861 -1.2612
O -3.3396 -4.1581 -1.5057
H -5.2698 -2.5878 -0.2511
19
Energy=1.156682821320335
Au 0.0728 2.272 -0.4217
S 0.0 0.0 0.0
C 0.0 0.0 1.7774
C 1.211 0.0 2.4983
C 2.5174 0.0639 1.7594
C 1.2238 -0.0392 3.8965
C -1.2004 -0.0561 2.5114
Cl 3.0627 1.7788 1.5563
C 0.0066 -0.1008 4.5862
O -2.3957 -0.1033 1.8191
O 3.1667 -0.8431 1.3732
Cl 2.7091 -0.0135 4.7888
C -3.2384 0.9551 1.8856
C -1.204 -0.116 3.9035
F -2.6102 2.1156 1.6467
H -2.1375 -0.1755 4.4613
F 0.007 -0.1525 5.9128
F -4.187 0.7791 0.9844
F -3.8146 1.0671 3.0957
42
Energy=2.294066714081719
Au 1.8187 -1.295 -0.5958
S 0.0 0.0 0.0
C 0.0 0.0 1.7702
C 1.1709 0.0 2.5592
F 2.3692 -0.0006 1.9604
C 1.1618 -0.0039 3.9437
H 2.1262 0.0172 4.4522
C -1.198 0.0401 2.5234
N -2.4981 0.1191 1.8448
C -1.2314 0.03 3.9157
O -2.5127 0.6 0.7204
C -0.0477 0.005 4.6616
C -0.0714 -0.0049 6.1339
C 0.9822 -0.4103 6.9289
H -2.2093 0.0292 4.3924
C -1.1981 0.3969 6.926
H 1.9499 -0.7951 6.6136
H -2.1323 0.774 6.5098
S 0.6179 -0.3074 8.6129
C -0.994 0.2962 8.2857
O -3.4834 -0.2797 2.4451
C -1.9453 0.6375 9.326
H -2.8977 1.04 8.9722
C -1.7335 0.4939 10.6463
H -0.8136 0.0723 11.0586
O -2.6124 0.7756 11.648
C -3.6651 1.6331 11.4803
C -4.8901 1.2466 12.0102
H -4.9927 0.2708 12.4858
C -3.5171 2.8881 10.8699
C -5.9663 2.1543 11.9125
H -2.5708 3.2271 10.4555
N -5.8383 3.3509 11.3237
C -4.6615 3.6847 10.8343
Cl -4.542 5.2638 10.085
N -7.1991 1.8225 12.4245
H -7.2819 0.9151 12.8669
C -8.3289 2.6292 12.3808
C -9.5247 2.2927 12.885
H -8.1471 3.5849 11.8861
H -9.7017 1.333 13.3802
H -10.3628 2.9855 12.8087
51
Energy=2.5749086510413766
Au 2.2621 -0.0083 -0.5706
S 0.0 0.0 0.0
C 0.0 -0.0 1.7326
C 1.2808 0.0 2.5106
C -1.1904 -0.0042 2.4763
C -2.4938 -0.0265 1.8008
N -2.6434 -0.0265 0.5198
O 2.4211 0.0074 2.0583
C -1.1468 -0.0031 3.9362
N -3.6233 -0.0375 2.6147
N 1.1136 -0.0158 3.8719
C -4.8734 0.0414 2.0111
N -0.0139 -0.0162 4.6009
C -2.3874 -0.0036 4.6966
C -3.9131 -0.0569 -0.0767
H 1.9792 -0.0216 4.4051
N -5.0458 0.0389 0.7449
C -3.6204 -0.0078 3.9864
S -4.0498 -0.2027 -1.7127
S -6.1218 0.1322 3.2796
C -4.8629 0.0562 4.5276
C -2.522 -0.1099 6.077
C -4.9221 0.3277 5.9995
O -3.7514 -0.2001 6.6504
N -1.5106 -0.2182 6.9425
C -5.0096 1.7849 6.2942
H -5.7667 -0.1631 6.5067
N -5.0662 2.9197 6.5177
H -0.5895 -0.1788 6.4963
C -1.6886 -0.2002 8.3854
H -0.7985 -0.6617 8.8372
C -1.9196 1.2091 8.9538
H -2.5437 -0.8442 8.6313
H -0.9593 1.7433 9.0376
H -2.5347 1.783 8.2426
C -2.634 1.1856 10.3177
C -4.0545 0.6834 10.1937
C -5.0437 1.4981 9.6178
H -4.7936 2.5161 9.3119
C -6.3415 1.0256 9.4077
H -2.637 2.2057 10.7329
C -4.4 -0.6198 10.5667
H -3.6767 -1.2955 11.0228
H -2.0739 0.5557 11.0279
C -5.6985 -1.0777 10.3453
C -6.6839 -0.2792 9.7679
H -7.0891 1.6819 8.9575
H -7.6844 -0.6838 9.6208
N -6.0366 -2.4642 10.7314
O -5.1549 -3.1388 11.2381
O -7.1743 -2.8469 10.515
56
Energy=3.733573214641886
Au 0.2096 2.2422 -0.5036
S 0.0 0.0 0.0
C 0.0 0.0 1.7835
C 1.1798 0.0 2.5808
C 2.5629 0.0627 1.9607
C -1.2309 -0.0863 2.4309
C 1.079 -0.0576 3.9601
H -2.1168 -0.0666 1.7955
F 2.7532 1.2067 1.2766
C -1.343 -0.1727 3.8299
C -0.1672 -0.1358 4.6211
H 1.9943 -0.0451 4.5475
F 2.7828 -0.9563 1.1215
F 3.5247 0.0139 2.9006
C -0.2909 -0.1692 6.0668
C 0.8031 -0.1264 6.9448
C -1.6151 -0.2375 6.6078
H 1.8302 -0.075 6.5802
C 0.6203 -0.1443 8.3265
N -2.7321 -0.3053 5.8302
C -0.6887 -0.2065 8.8574
C -2.6334 -0.2855 4.5217
C -1.7821 -0.2523 8.0164
H -0.826 -0.219 9.9426
N -3.7768 -0.3549 3.7912
C 1.794 -0.0961 9.2224
H -3.6973 -0.5109 2.7969
H -2.8024 -0.3033 8.3992
C -5.0877 -0.528 4.3955
H -5.837 -0.168 3.6749
H -5.1449 0.1181 5.2811
C -5.3797 -1.9772 4.7953
O 2.9461 -0.0406 8.8515
H 1.5425 -0.1147 10.3156
H -5.2997 -2.6209 3.901
H -4.5994 -2.3018 5.5014
C -6.7607 -2.1696 5.4445
C -7.9159 -1.8161 4.5384
H -6.8168 -1.5619 6.3599
C -8.4988 -0.5381 4.5688
O -7.9996 0.3686 5.4637
C -9.5488 -0.2199 3.701
H -8.5168 1.1823 5.4129
H -6.8553 -3.2234 5.7517
C -8.4199 -2.7427 3.6157
H -7.9812 -3.7461 3.5828
C -9.468 -2.4277 2.7477
C -10.0431 -1.1463 2.7808
C -11.1896 -0.7959 1.8566
H -11.0246 -1.2767 0.8742
H -10.0068 0.7728 3.7276
O -9.9822 -3.3226 1.8519
H -12.1254 -1.2286 2.2506
O -11.4169 0.5923 1.7405
H -10.6413 0.9811 1.3142
H -9.499 -4.1559 1.9168
16
Energy=4.548592843286822
Au 1.2249 -2.0454 -0.2878
S 0.0 0.0 0.0
C 0.0 0.0 1.8374
H 1.0254 -0.0 2.225
C -0.7567 -1.2076 2.3643
N -1.8805 -1.5473 1.6311
O -0.3881 -1.8082 3.3501
C -2.4072 -0.6892 0.6203
H -0.5378 0.9228 2.1114
N -1.546 -0.1755 -0.3507
H -3.2815 -1.1587 0.1595
C -2.7861 -2.5531 2.173
Cl -3.2993 0.8095 1.5286
H -3.1155 -3.2339 1.3748
H -2.2505 -3.1167 2.9442
H -3.6652 -2.0633 2.624
30
Energy=3.3277609098450114
Au -2.2982 0.0216 -0.3215
S 0.0 0.0 0.0
C -0.0 0.0 1.7396
N -1.0587 0.0001 2.5045
C -0.7617 -0.0 3.8404
S 1.5363 0.0 2.5932
C 0.6456 -0.0001 4.1251
C 1.3413 0.0012 5.3301
H 2.4327 0.0003 5.237
C -1.7949 0.0025 4.8012
C 0.8636 0.0032 6.6511
C -3.1841 0.0084 4.5825
C -0.5016 0.01 7.0528
C -1.6313 0.0056 6.2729
H -0.644 0.0328 8.1369
C -2.981 0.0126 6.7694
N -3.862 0.0181 5.7709
C 1.8746 -0.0043 7.6962
C -3.9433 0.0056 3.2948
H -3.6983 -0.8785 2.6848
C -3.4162 0.0338 8.1839
H -5.0184 0.0075 3.5186
H 2.9266 0.0053 7.363
N 1.5752 -0.0246 8.9534
H -3.6974 0.8882 2.6828
C 2.5122 -0.0335 9.8931
H -4.4821 -0.2034 8.2549
H -2.8278 -0.6238 8.8332
Br -3.2137 1.8464 9.0004
N 3.2627 -0.0454 10.787
20
Energy=1.5923082182315411
Au 1.2159 1.8995 -0.489
S 0.0 0.0 0.0
C 0.0 0.0 1.7668
C -1.2126 -0.077 2.4613
C 1.1927 -0.0 2.538
O 2.362 0.1122 1.9287
C 1.1101 -0.0799 3.9562
C -0.1418 -0.1764 4.5915
C -1.3199 -0.1765 3.86
C 2.3363 -0.0624 4.7387
H 3.0635 0.1055 2.6398
F -2.3541 -0.0663 1.7698
O 3.4595 0.03 4.2487
C -2.7062 -0.2723 4.4705
H 2.2171 -0.1361 5.844
H -0.1798 -0.2487 5.6813
H -3.3162 0.5972 4.172
H -3.2368 -1.157 4.079
C -2.6912 -0.3491 5.9297
N -2.651 -0.4087 7.0855
31
Energy=2.5311791995532444
Au 0.8695 2.0722 -0.5152
S 0.0 0.0 0.0
C 0.0 -0.0 1.7859
C 1.24 -0.0 2.5449
C 2.6013 -0.07 1.8859
C 1.1554 -0.0054 3.9168
C -1.2425 -0.0822 2.3655
H -2.1493 -0.0492 1.7622
C -0.1328 -0.1017 4.5979
O 2.2873 0.0645 4.6447
H 2.7121 0.7351 1.144
C -1.4097 -0.1701 3.8039
C -0.2958 -0.1627 5.9428
H 3.3586 0.0987 2.6629
C 2.8814 -1.391 1.2013
C 3.1415 -1.4744 -0.1653
H -1.3122 -0.251 6.341
O -2.5065 -0.2588 4.3532
H 2.0907 -0.027 5.5891
O 0.729 -0.1279 6.8185
H 0.4168 -0.1987 7.7301
H 3.1294 -0.561 -0.7668
C 2.8984 -2.6104 1.911
C 3.3926 -2.7108 -0.7736
O 2.6723 -2.6038 3.2468
N 3.1328 -3.7847 1.3461
O 3.6483 -2.8565 -2.1027
H 2.7279 -3.5338 3.5187
C 3.3729 -3.85 0.035
H 3.5587 -4.8335 -0.4082
H 3.5773 -1.9972 -2.5372
20
Energy=1.851196003217387
Au 0.0395 -2.2483 -0.502
S 0.0 0.0 0.0
C -0.0 -0.0 1.7833
C 1.2159 -0.0 2.4834
H 2.144 -0.0581 1.9189
C 1.2274 0.0711 3.8804
C -1.2121 0.0812 2.4777
C 0.0004 0.1493 4.5905
H -2.1512 0.0822 1.9261
C -1.2048 0.1558 3.8765
O 2.3558 0.0713 4.6134
I 0.1084 0.2509 6.6992
C 3.6244 -0.0069 3.9749
I -3.1027 0.2713 4.8255
H 3.6821 -0.9334 3.3746
H 3.7464 0.8472 3.284
C 4.6847 0.01 5.0559
H 4.5551 -0.8437 5.7378
H 5.6866 -0.0493 4.6043
H 4.6195 0.9358 5.6466
23
Energy=2.4662393550517954
Au 0.6128 2.1617 -0.5342
S 0.0 0.0 0.0
C 0.0 -0.0 1.7787
C 1.1564 0.0 2.6169
C 2.5167 0.2073 2.0549
O 2.8144 0.8043 1.0723
Cl 3.8451 -0.5758 3.032
C -1.2535 -0.1676 2.3867
C 1.0024 -0.1575 3.998
C -0.2468 -0.3093 4.6183
C -1.3625 -0.3166 3.762
C -0.4308 -0.4608 6.0594
F -2.5809 -0.4655 4.2886
H -1.4594 -0.5883 6.4004
C 0.5429 -0.457 6.9909
H 1.5948 -0.3315 6.7216
H -2.1575 -0.178 1.7777
C 0.2825 -0.6189 8.4296
O -1.0249 -0.7679 8.7326
N 1.149 -0.6294 9.3659
H 1.9002 -0.165 4.6129
H 2.0946 -0.508 8.9993
H -1.0658 -0.8655 9.6981
19
Energy=4.169925884516832
Au 0.2091 -2.2528 -0.458
S 0.0 0.0 0.0
C 0.0 0.0 1.7739
C -1.1993 0.0769 2.4822
C 1.2062 -0.0 2.5109
F -2.3401 0.0604 1.8098
C -1.2461 0.1847 3.8984
C 2.5186 -0.1356 1.7971
C -0.0167 0.2028 4.6013
O 3.0089 -1.1485 1.425
C -2.5828 0.1979 4.5202
Cl 3.3135 1.45 1.5634
O -3.6017 -0.2236 4.102
C 1.2059 0.0951 3.896
Cl -2.6467 1.0704 6.1825
O 2.3689 0.0922 4.5762
H 2.1663 0.1948 5.5204
O 0.1493 0.2815 5.931
H -0.6869 0.5315 6.3762
30
Energy=5.651694817233808
Au 0.1383 -2.2538 -0.5083
S 0.0 0.0 0.0
C -0.0 -0.0 1.7744
C -1.2316 0.0965 2.4369
H -2.1471 0.1097 1.8398
C -1.319 0.188 3.8294
C -0.1203 0.1481 4.5745
C 1.1032 0.0511 3.9339
Br -0.1912 0.2101 6.4696
C 1.2128 -0.0 2.525
H 1.9985 -0.0462 4.5443
O -2.4904 0.2976 4.4846
C 2.5047 -0.1538 1.8964
H -3.2185 0.3119 3.8486
H 2.506 -0.6901 0.9444
C 3.7332 0.242 2.382
H 4.625 -0.2054 1.933
C 4.0309 1.2263 3.3439
C 2.6808 2.6201 4.8262
O 2.0054 3.5726 5.0021
C 5.2835 1.3318 4.0556
O 3.0379 2.1494 3.6276
F 3.161 1.8632 5.8187
C 5.668 0.1354 4.4621
C 5.8775 -1.2096 4.579
H 5.6744 2.2983 4.4046
C 5.2354 -2.115 5.3933
I 3.5929 -1.5919 6.5653
H 6.6407 -1.6278 3.9047
H 5.4555 -3.181 5.3543
15
Energy=0.26783128040845383
Au 1.0917 -1.968 -0.5187
S 0.0 0.0 0.0
C 0.0 -0.0 1.7745
C 1.1756 -0.0 2.5678
Cl 2.7321 -0.0858 1.8188
C -1.2512 0.1039 2.4059
H -2.164 0.0768 1.8102
C -1.333 0.2482 3.7855
C -0.1955 0.2583 4.5817
F -2.5316 0.3661 4.3605
C 1.0434 0.1048 3.9611
N 2.212 0.0645 4.8688
H -0.2593 0.3775 5.6622
O 3.0802 -0.7531 4.6349
O 2.1934 0.8373 5.812
19
Energy=2.988335319129455
Au 0.0761 2.2622 -0.4386
S 0.0 0.0 0.0
C 0.0 -0.0 1.788
C 1.187 0.0 2.5752
C 2.495 0.348 1.9661
C -1.2479 -0.1696 2.3995
O 2.6964 1.0373 1.0014
C 1.0824 -0.2349 3.977
O 3.5549 -0.1818 2.6639
C -0.1796 -0.4 4.5725
H 4.3642 0.1477 2.2353
O 2.1272 -0.295 4.809
C -2.5198 -0.1284 1.6068
C -1.3117 -0.3585 3.7852
H 2.953 -0.2876 4.2882
H -0.251 -0.5637 5.6473
O -3.1148 0.8428 1.2804
Cl -3.133 -1.7783 1.2342
F -2.5094 -0.5113 4.352
36
Energy=1.4118275914178129
Au 1.2242 -1.8897 -0.5268
S 0.0 0.0 0.0
C -0.0 0.0 1.7707
C 1.1471 0.0 2.5961
Br 2.9051 -0.1373 1.893
C 1.0138 0.0957 3.9766
C -1.2566 0.0974 2.3989
H -2.1419 0.0705 1.7628
H 1.8851 0.0822 4.6285
C -1.4314 0.2282 3.78
C -0.251 0.2283 4.5517
N -0.2733 0.3748 6.0181
C -2.8359 0.3326 4.3538
O 0.6944 -0.0303 6.6416
O -1.2506 0.9082 6.5237
C -3.9178 -0.1309 3.4249
H -3.0119 1.3753 4.6633
H -3.8885 -1.1897 3.1438
C -4.8922 0.6633 2.9496
H -2.8772 -0.244 5.2911
C -5.9984 0.2918 2.0649
H -4.8766 1.7195 3.2471
C -6.2205 -1.02 1.5843
H -5.5539 -1.8311 1.8996
C -6.9207 1.2495 1.6309
H -6.7752 2.2823 1.9646
C -7.9807 0.9272 0.7768
N -7.188 -1.3664 0.7581
C -8.0598 -0.4305 0.3213
C -8.9817 1.9242 0.3208