13
Properties=species:S:1:pos:R:3:MACE_forces:R:3 Energy=0.7836049951614685 MACE_energy=0.32338747382164 pbc="F F F"
Au      -0.06650000       2.24310000      -0.52310000       0.00225656      -0.07097095       0.10681180
S        0.00000000       0.00000000       0.00000000      -0.00667792       0.05906109      -0.19497052
C        0.00000000       0.00000000       1.78060000      -0.00032482      -0.00928416       0.62432051
C       -1.20970000      -0.08860000       2.49100000       0.23034269      -0.06968300       0.16833214
H       -2.15200000      -0.09150000       1.94030000       0.23776852       0.05852843      -0.44081458
C       -1.21240000      -0.17070000       3.88210000       0.15418231       0.01826452       0.17308035
C        1.21240000       0.00000000       2.49200000      -0.22174814      -0.08599529       0.16749892
H        2.15290000       0.06580000       1.94210000      -0.23791136       0.04236260      -0.43708077
C        0.00490000      -0.16490000       4.57140000      -0.00343449       0.08101457       0.22958675
H       -2.14900000      -0.23930000       4.43710000      -0.04582112      -0.04032964      -0.25030518
C        1.21990000      -0.08120000       3.88310000      -0.15509227       0.00680094       0.17137715
Cl       0.00780000      -0.26400000       6.31260000      -0.00170941       0.04821539      -0.06828774
H        2.15850000      -0.08080000       4.43890000       0.04816951      -0.03798452      -0.24954885
30
Properties=species:S:1:pos:R:3:MACE_forces:R:3 Energy=3.3500031455951422 MACE_energy=1.161002516746521 pbc="F F F"
Au       2.32200000       0.00470000      -0.20260000       0.01156696      -0.02216380       0.39972892
S        0.00000000       0.00000000       0.00000000      -0.17475176       0.03395136      -0.04597816
C        0.00000000       0.00000000       1.75360000       0.74571627       0.17078714       0.59234309
N        1.05930000       0.00000000       2.51600000      -1.17946601      -0.00725655      -0.63363326
N       -1.14870000       0.04630000       2.57910000       1.28376055      -0.31837583      -0.61188519
C       -0.62280000       0.09760000       3.88400000       0.52392936      -0.40595075       0.81132162
N        0.67990000       0.07130000       3.83850000      -0.39426842       0.26247212      -1.04787052
N       -2.45770000      -0.09680000       2.35020000      -0.36042881      -0.26939693      -0.14015752
N       -1.37410000       0.10850000       5.03250000      -1.04600978       0.15087685       0.43848556
C       -2.93790000      -0.20490000       1.17030000       0.06866533       0.59759957       0.25224572
C       -0.72070000      -0.28850000       6.27900000      -0.00729915       0.14357285      -0.05947847
H        0.19520000      -0.83980000       6.04440000      -0.06943366      -0.10580558       0.28330106
H       -2.31220000      -0.21710000       0.26260000       0.34824583      -0.16650993       0.15770899
H       -1.41030000      -0.92310000       6.85680000       0.32948497      -0.38683474      -0.17120788
H       -0.46260000       0.59700000       6.88190000       0.40771857       0.10793476       0.02466763
C       -4.37710000      -0.41390000       0.94790000      -0.17465048      -0.47875884      -0.42271101
O       -4.64420000      -1.30070000      -0.02890000      -0.63350612       0.87745970       0.13483948
C       -2.61850000       0.72030000       5.11340000      -0.12378854       0.16010043      -0.32515731
C       -5.42800000       0.22180000       1.56490000       0.57274270       0.36425507       0.27992636
H       -3.84030000      -1.76990000      -0.29650000       0.15729603      -0.38780406      -0.03296872
C       -5.31740000       1.40570000       2.44520000      -0.24472140       0.36119458       0.23286571
H       -3.03620000       1.17590000       4.20610000      -0.07595322       0.48837924      -0.01209733
C       -3.35290000       0.79910000       6.21260000      -0.27438349       0.13406448      -0.15459214
O       -4.30390000       1.93970000       2.85340000       0.27800921      -0.72207600       0.41282845
H       -6.31860000       1.81870000       2.69970000      -0.11335339      -0.24716213      -0.10476107
C       -6.81360000      -0.21390000       1.25440000      -0.83562684      -0.34324625      -0.13326062
H       -6.89860000      -1.13110000       0.62830000       0.15788019      -0.22071941       0.02543211
O       -7.80310000       0.35660000       1.66080000       0.79701710       0.12720142      -0.09321535
C       -4.10950000       0.90770000       7.25700000       0.01917857       0.08373564       0.00788121
C       -4.85110000       1.00040000       8.31410000       0.00642939       0.01847561      -0.06460123
32
Properties=species:S:1:pos:R:3:MACE_forces:R:3 Energy=2.525133101626073 MACE_energy=1.2869017124176025 pbc="F F F"
Au       1.27380000      -1.84480000      -0.48840000      -0.13721457      -0.08617801       0.33154982
S        0.00000000       0.00000000       0.00000000      -0.03181554       0.01862578      -0.08200039
C        0.00000000       0.00000000       1.85350000      -0.84011865      -0.21164703       0.07811757
H        1.03040000      -0.00000000       2.22310000      -0.17472471       0.11369454      -0.10946596
C       -0.77080000      -1.15420000       2.41510000      -0.10140988       0.05624244      -0.17785281
C       -0.06080000      -2.32210000       2.80040000       0.05229521       0.03438984      -0.05583631
O        1.26130000      -2.31450000       2.66890000       0.82460642       0.01178989       0.16637486
H       -0.49070000       0.95200000       2.08790000       0.28444472      -0.02513415      -0.06832515
H        1.58140000      -3.24290000       2.91130000      -0.43449885       0.07818888       0.06298839
C       -2.16850000      -1.18380000       2.52280000       0.65911305      -0.14390501       0.09437984
C       -3.06120000      -0.05300000       2.16530000       0.02776974       0.32025397      -0.28504345
C       -2.79140000      -2.36280000       2.98870000       0.16617475      -0.39461511       0.19655240
C       -0.79440000      -3.44950000       3.28750000      -0.32638386      -0.07147448       0.15718634
N       -2.13610000      -3.44310000       3.35370000       0.08937272       0.20228116      -0.17349292
H       -3.88600000      -2.40090000       3.05400000      -0.08866754       0.12824467      -0.08916168
O       -2.72030000       1.04360000       1.78420000       0.13812023      -0.28280735       0.29227579
H       -4.14800000      -0.29670000       2.28750000       0.15633903      -0.11483654       0.07743780
C       -0.08950000      -4.67190000       3.71710000      -0.04263225      -0.35287324      -0.15073889
N        1.21720000      -4.71550000       3.43020000      -0.70007426       0.22447920       0.02981561
C       -0.68010000      -5.79380000       4.40700000       0.01344185       0.23477592      -0.15053102
C        0.23450000      -6.86960000       4.59280000       0.43279499       0.19065097      -0.19531615
N        1.53960000      -6.81750000       4.22240000      -0.37192452       0.88378572      -0.22847506
N       -1.94800000      -5.83160000       4.84980000       0.46115518       0.14397341      -0.14246255
N        2.01910000      -5.75400000       3.68220000      -0.33243531      -0.75553155       0.42539293
C       -2.34590000      -6.94320000       5.45030000       0.18161170      -0.39901263       0.11768325
C       -0.20500000      -8.08030000       5.22770000       0.79496527      -1.22219181       0.24677752
C       -1.53760000      -8.06930000       5.64040000      -0.14732149       0.14563802      -0.01447770
F       -2.02670000      -9.16170000       6.25110000       0.01837998      -0.03668368       0.00036793
H       -3.37550000      -6.98310000       5.82610000       0.10524639       0.30856830      -0.18173811
N        0.63230000      -9.11820000       5.40030000      -0.62140042       1.11376095      -0.27966318
H        1.59180000      -9.01140000       5.09210000       0.17219979      -0.12983580       0.03310754
H        0.32680000      -9.95160000       5.88170000      -0.22740935       0.01738299       0.07457368
31
Properties=species:S:1:pos:R:3:MACE_forces:R:3 Energy=1.9147178654450157 MACE_energy=2.6465630531311035 pbc="F F F"
Au       1.27480000      -1.84300000      -0.53740000       0.23600101       0.38926834       0.47918069
S        0.00000000       0.00000000       0.00000000      -0.01597091      -0.15173075       0.23742118
C       -0.00000000       0.00000000       1.77160000       0.00693397      -0.20365673       0.04145949
C       -1.22590000       0.08320000       2.45860000       0.18860708       0.11476713      -0.23396966
H       -2.15240000       0.06100000       1.88310000       0.03513353       0.06045699      -0.05438414
C       -1.25450000       0.17760000       3.84290000      -0.23377980       0.07527070       0.33359984
C        1.17640000      -0.00000000       2.53270000      -0.01518697      -0.09634812      -0.80124736
F        2.36270000      -0.14390000       1.92570000      -0.71449214      -0.09288757      -0.27431989
C       -0.06510000       0.21070000       4.59480000      -0.12574185       0.11924046       0.41960886
C        1.17310000       0.08800000       3.93150000       0.16656427       0.49136299      -0.01303396
C       -0.23400000       0.33800000       6.06590000       0.01150107      -0.28690302      -0.47291708
H       -2.20560000       0.23530000       4.37350000       0.17682323      -0.00034809      -0.50948566
O        2.33370000      -0.03290000       4.62100000       0.83374321      -0.19035223       0.51810086
Cl       1.02200000       1.33880000       6.90750000      -0.10849699       0.28848228      -0.10620911
C        3.30870000       0.99600000       4.46970000      -0.46880010      -0.33198500       0.31065366
O       -1.15930000      -0.07330000       6.68750000      -0.12781970      -0.07241030       0.54192960
H        3.67070000       1.04200000       3.43030000      -0.08089262      -0.02300726      -0.23499390
H        2.84170000       1.96690000       4.71740000      -0.10117717      -0.12310860      -0.03683969
C        4.45070000       0.71720000       5.40440000       0.13308740       0.11494018      -0.29851979
C        4.29590000      -0.06280000       6.54680000      -0.42242467       0.23872527      -0.13467894
H        3.34470000      -0.53290000       6.78730000       0.08379339      -0.04532856      -0.19398193
C        5.72430000       1.26450000       5.17770000      -0.47746083      -0.06026008      -0.27465564
H        5.92080000       1.87840000       4.29540000       0.21320719       0.11164777       0.04482393
C        5.36020000      -0.25790000       7.41460000       0.29456896       0.39061069      -0.42147931
N        5.14460000      -1.02550000       8.64560000       0.43471664       0.15679966       0.24531505
O        4.42970000      -2.01110000       8.53830000      -0.14190659      -0.41897601       0.34869015
O        5.63960000      -0.60550000       9.67020000       0.38162804      -0.06396475      -0.39502710
N        6.62110000       0.26090000       7.18700000       1.26709938      -0.31979632       0.91965979
C        6.76690000       1.03440000       6.04960000      -0.09967972      -0.01216349      -0.05651673
O        7.60430000       0.02710000       7.92440000      -1.48018694      -0.01114260      -0.12319568
H        7.78210000       1.40660000       5.92250000       0.15060887      -0.04720293       0.19501263
22
Properties=species:S:1:pos:R:3:MACE_forces:R:3 Energy=1.9291414270117555 MACE_energy=1.3771095275878906 pbc="F F F"
Au       0.00110000      -2.25110000      -0.50310000       0.08058271       0.54969150       0.63006818
S        0.00000000       0.00000000       0.00000000       0.24070019      -0.01338452      -0.55520546
C        0.00000000      -0.00000000       1.76230000      -0.10578369      -0.43825695      -0.02464701
C        1.18880000       0.00000000       2.51210000       0.02753905       0.00635343      -0.22514606
F        2.33720000      -0.10060000       1.84630000      -0.19667117      -0.08136728      -0.26379275
C       -1.18890000       0.07160000       2.50870000      -0.26216400      -0.02676367      -0.04080559
C        1.23820000       0.07720000       3.91120000       0.14804332       0.08560579       0.50706220
F       -2.35160000       0.04560000       1.86830000      -0.09438165      -0.04039647      -0.60837471
C       -1.21350000       0.15280000       3.89510000      -0.24060082       0.00481843       0.07770287
C       -0.00400000       0.16110000       4.60900000      -0.35268816       0.04621201       0.56599694
H       -2.18120000       0.20780000       4.38810000       0.02723037       0.02768886       0.04285854
C        2.55920000       0.06650000       4.58810000       0.64374679      -0.01786987      -0.08632347
O        0.05190000       0.24120000       5.93580000      -0.47327927       0.03077023       0.49477953
H        3.41640000       0.00150000       3.87710000       0.22776417      -0.06149856      -0.37662229
C       -1.13950000       0.32550000       6.71340000       0.05344421      -0.06254515      -0.65698314
O        2.75080000       0.11930000       5.78120000      -0.17414871       0.01080544       0.09373654
H       -1.76740000      -0.56350000       6.52280000       0.23550108       0.15804338       0.16649249
H       -1.71570000       1.21790000       6.40920000       0.28587234      -0.17983490       0.15474774
C       -0.72790000       0.40600000       8.16800000       0.12617347       0.02726357       0.35317600
H       -0.09940000       1.29180000       8.34160000      -0.20559818      -0.07668111      -0.05578500
H       -0.14990000      -0.48480000       8.45420000      -0.22282186       0.08024183      -0.04009762
H       -1.61930000       0.47220000       8.81000000       0.23153982      -0.02889602      -0.15283783
23
Properties=species:S:1:pos:R:3:MACE_forces:R:3 Energy=3.953476635849932 MACE_energy=-0.10953199863433838 pbc="F F F"
Au       2.26290000       0.00700000      -0.60390000      -0.15324563      -0.00359843       1.02390003
S        0.00000000       0.00000000       0.00000000      -0.83768910       0.00287470      -1.27375758
C       -0.00000000      -0.00000000       1.74070000      -0.05090681      -0.00085816       0.21056052
N        1.16240000      -0.00000000       2.46300000      -0.55836469      -0.00168357       1.20880568
H        2.06120000       0.00100000       1.97690000       1.53487408       0.00377759      -0.27020454
N       -1.16790000      -0.00060000       2.34180000       0.40699828      -0.00164977      -0.00594404
C       -1.19320000      -0.00070000       3.67880000      -0.58329821       0.00131698      -0.28856951
C        1.15520000      -0.00170000       3.83010000       0.94641995       0.00261389      -0.17785442
N        2.39270000      -0.00300000       4.41340000      -0.41192871      -0.00297591       0.01502317
C       -0.06330000      -0.00140000       4.49780000      -0.02858967      -0.00257850       0.34969422
O        3.43420000       0.00360000       3.50430000       0.11682343       0.00030191      -0.39766246
H        0.00280000      -0.00170000       5.62590000      -0.09009246       0.00266727      -0.41549850
C        2.96690000      -0.01420000       5.70650000      -0.51050776       0.01288295      -0.65659070
Cl      -2.74950000       0.00050000       4.41360000      -0.36262158      -0.00034953      -0.08162400
N        4.26130000      -0.01310000       5.61890000       0.47577131      -0.00978516       0.14938855
C        4.64690000      -0.00260000       4.30290000       0.20978194      -0.00062992       0.14647239
C        2.17640000      -0.02250000       6.98510000      -0.26204231       0.00400892      -0.23934232
N        0.92980000      -0.01040000       7.08290000       0.55922949      -0.00731586       0.43213233
C        3.10550000      -0.04660000       8.23310000      -0.73654431      -0.01120679       0.99907392
O        5.69760000       0.00160000       3.75360000      -0.38017693       0.00317958      -0.10575655
F        3.89170000      -1.13870000       8.24760000       0.20586485       0.44622627      -0.14030619
F        3.90460000       1.03490000       8.28130000       0.20472232      -0.44384199      -0.15774810
F        2.37410000      -0.05950000       9.34390000       0.30552238       0.00662356      -0.32419229
24
Properties=species:S:1:pos:R:3:MACE_forces:R:3 Energy=0.7286337331849929 MACE_energy=0.0056383609771728516 pbc="F F F"
Au       1.55910000      -1.62930000      -0.47920000      -0.14132598      -0.04621671      -0.01787478
S        0.00000000       0.00000000       0.00000000      -0.55454868       0.18430091      -0.34671205
C        0.00000000      -0.00000000       1.79440000      -0.15269575      -0.05009422      -0.48199701
C        1.12410000      -0.00000000       2.66720000      -0.04150219      -0.50022048       0.15058798
C        2.54570000      -0.19670000       2.16750000      -0.07742488       0.04743659      -0.48003957
C        0.85670000       0.24300000       4.03470000       0.02217890      -0.23941563      -0.22852942
C       -0.43830000       0.41370000       4.53660000       0.18646356       0.08353733      -0.10105990
C       -1.29230000       0.15000000       2.34000000       0.50647807      -0.11455525       0.46792319
N        1.94130000       0.45150000       5.00360000       0.67457438       0.42639616       0.36418736
O        2.86210000      -0.37290000       5.06080000       0.26351470      -0.48667917      -0.09003515
C        3.00370000      -1.67170000       2.12960000      -0.22137949      -0.22099400      -0.28656721
H        2.63040000       0.21000000       1.15360000       0.36146456      -0.00520916       0.39081812
O        3.13900000      -2.28020000       3.28410000      -0.39269811       0.74546856       0.89345396
H       -2.13800000       0.10680000       1.65090000       0.22745496       0.12195646      -0.70735312
H        3.25900000       0.34490000       2.80590000      -0.17667392       0.26026905      -0.05375157
C       -1.54730000       0.34550000       3.69630000      -0.63075376       0.07235980       0.45455331
C       -2.93380000       0.47950000       4.26070000       0.35562190       0.03728738       0.63177449
H        2.98080000      -1.65120000       4.03270000       0.10919420      -0.05813023       0.21709259
O        3.24130000      -2.27600000       1.09140000       0.32307309       0.07083739      -0.17035636
F       -0.62950000       0.59950000       5.84400000      -0.03206512      -0.17284130       0.11639176
H       -3.68600000       0.43280000       3.46200000      -0.09815656       0.00087702      -0.21301278
O        1.88760000       1.43460000       5.70390000      -0.03473431      -0.15984033      -0.19320872
H       -3.14450000      -0.32320000       4.98550000      -0.31132948       0.00931497      -0.18671614
H       -3.05120000       1.43390000       4.79780000      -0.16473000      -0.00584510      -0.12956882
25
Properties=species:S:1:pos:R:3:MACE_forces:R:3 Energy=0.24599304334081198 MACE_energy=0.02817809022963047 pbc="F F F"
Au       2.29550000      -0.02280000      -0.31230000      -0.17968456       0.10336669       0.17444003
S        0.00000000       0.00000000       0.00000000       0.17415112      -0.04019851      -0.34853721
C       -0.00000000      -0.00000000       1.77310000       0.79197717       0.17887782      -0.61898255
N        1.12550000       0.00000000       2.44030000      -0.47107545      -0.24790955       0.31692427
N       -1.22790000      -0.01170000       2.38600000       0.39802611       0.48758656       0.83655751
C        1.06540000      -0.02620000       3.79780000      -0.15968548      -0.09189120      -0.55911672
H        2.03260000      -0.02950000       4.31130000       0.18982638       0.16507366      -0.06127482
C       -0.09590000      -0.05730000       4.52160000      -0.20072323       0.10774548      -0.59111488
C       -1.35350000      -0.08380000       3.80420000      -0.18099950      -0.15824223       0.78904557
C       -2.48730000      -0.01970000       1.63040000      -0.41457218      -0.26488253       0.11880280
O       -2.46380000      -0.16720000       4.31300000      -0.60687488      -0.22174297      -0.63804746
C       -0.14940000      -0.13070000       6.01950000      -0.41099995      -0.14075305       0.36332044
H       -2.34820000       0.54990000       0.70240000       0.60526687       0.41755468       0.12919633
H        0.84570000       0.08180000       6.43850000       0.04441025       0.00898246       0.23079112
C       -2.93090000      -1.44670000       1.33770000      -0.69631505       0.01641649      -0.54986984
H       -3.23780000       0.48170000       2.25250000       0.32787007       0.12720269       0.35307682
H       -0.84760000       0.63140000       6.40040000       0.43683022       0.24459068       0.01905783
H       -2.18750000      -1.98970000       0.74170000       0.12851682      -0.58077645      -0.40960029
C       -0.64980000      -1.50120000       6.53230000       0.40776533       0.28588656      -0.31471732
H       -3.14590000      -1.98690000       2.26680000      -0.14481252      -0.17637116       0.68984711
Br      -4.58590000      -1.43150000       0.29170000       0.24937211      -0.02557591       0.00617260
C        0.21480000      -2.60190000       6.10730000       0.66847241      -0.49869797      -0.58166015
H       -1.66850000      -1.67610000       6.15260000      -0.42246932      -0.19201756       0.22643135
N        0.92420000      -3.44300000       5.74430000      -0.41635656       0.36834076       0.27593547
H       -0.70510000      -1.49960000       7.63290000      -0.11791617       0.12743458       0.14332178
29
Properties=species:S:1:pos:R:3:MACE_forces:R:3 Energy=4.246088277451705 MACE_energy=4.312081336975098 pbc="F F F"
Au       2.30210000      -0.00770000      -0.29470000      -0.02250472       0.00671602       1.01034224
S        0.00000000       0.00000000       0.00000000       0.22974028       0.05165070      -1.14883590
C       -0.00000000      -0.00000000       1.73880000       0.83969247      -0.07933238      -0.08639455
N        1.03540000      -0.00000000       2.50580000      -0.81119716      -0.01227329      -1.26275587
S       -1.60740000      -0.01290000       2.52230000      -0.02597274       0.01933675       1.05056632
C        0.71400000      -0.01140000       3.87440000      -0.02521948       0.10669719       0.01446691
O        1.53160000       0.05850000       4.76070000      -0.46201715      -0.49876845       0.32149887
C       -0.78560000      -0.05590000       4.09140000      -0.00315297      -0.04857250       0.54076767
C       -1.45050000      -0.00790000       5.26830000       0.10565591      -0.12033132      -0.28740743
C       -0.89940000      -0.12030000       6.61850000       0.53877509      -0.38931024      -0.24439333
C        0.04890000      -1.07710000       6.99200000      -0.53283632       0.56832099      -0.75155461
C       -1.39600000       0.72050000       7.64110000      -0.30160391       0.29067254       0.17198846
H       -2.15810000       1.46460000       7.39300000      -0.08219227       0.14404044       0.10623458
C       -0.90920000       0.64290000       8.93220000      -0.09717081       0.04334421      -0.09688093
C        0.07760000      -0.30950000       9.28180000       0.11148345      -0.04747784       0.50524312
O       -1.31060000       1.43820000       9.97240000      -0.68029124       0.89422929      -0.01278952
F        0.45560000      -1.96750000       6.08500000       0.20256919       0.13328302      -0.25517616
C        0.56410000      -1.20020000       8.29970000       0.28773427      -0.14149210       0.41073835
H       -1.92530000       2.11680000       9.66790000       0.38348138      -0.53494591       0.01586245
C        1.56530000      -2.23620000       8.55830000      -0.09161795      -0.12661266       0.06059922
H       -2.53380000       0.15700000       5.22630000       0.19053736      -0.11547670       0.33252659
O        0.51980000      -0.33930000      10.54270000      -0.02892023       0.02474737      -0.58581364
H        0.06230000       0.36970000      11.02510000       0.36384043      -0.47067809       0.48842752
H        1.93480000      -2.76800000       7.66660000      -0.37152714      -0.19996978       0.05768280
N        2.00660000      -2.53620000       9.72190000      -0.24772675       0.62056553      -0.70417666
C        3.03080000      -3.47220000       9.81920000       0.70527267      -0.20314679      -0.36889568
N        4.03730000      -3.48650000       9.03630000      -0.44618130       0.72054815       0.77594459
H        4.68690000      -4.22860000       9.31480000       0.42233193      -0.68186969      -0.08989708
H        2.89900000      -4.15590000      10.67890000      -0.15098220       0.04610559       0.03208125
32
Properties=species:S:1:pos:R:3:MACE_forces:R:3 Energy=2.3073147341133007 MACE_energy=3.9355990886688232 pbc="F F F"
Au       1.72130000      -1.55670000      -0.66330000       0.06361811       0.38046110      -0.21819252
S        3.71420000      -2.63900000      -1.28690000      -0.35469091       0.67235374       0.22835952
C        4.72050000      -1.22890000      -1.25070000      -0.86162806       0.75380319       0.19708973
N        4.39180000      -0.00000000      -1.20460000       1.58295178      -1.98958993      -0.57417226
S        6.57130000      -1.43220000      -1.23770000       0.32860085       0.59027588       0.45867679
C        6.76210000       0.26740000      -0.54110000       0.29410577      -0.75766355       0.19740029
C        5.47780000       0.96670000      -1.00290000      -0.21288185       0.12057342       0.11967611
C        8.07030000       0.89780000      -0.97670000       0.29916415      -0.18782513      -0.16248547
H        5.66190000       1.49550000      -1.95700000      -0.29297280       0.35877746       0.22455490
H        6.73160000       0.09930000       0.54550000       0.06097069      -0.25887755      -0.34825066
H        8.12130000       0.96100000      -2.07340000       0.26368469       0.36986324      -0.15000673
C        5.01280000       2.03140000       0.02320000       0.35002860      -0.50498235      -0.51330537
H        8.14250000       1.90740000      -0.54780000       0.04529101       0.11685099      -0.04052410
O        7.00950000      -2.44980000      -0.28270000      -0.50243330       0.44622588      -0.30912936
O        7.03690000      -1.43640000      -2.62980000      -0.29612452      -0.13618723       0.15815116
N        3.62070000       2.05030000       0.11400000      -0.62429988      -0.72299153      -0.26874718
H        3.20850000       1.34600000      -0.50770000      -0.52060843       0.34423599       0.47712469
C        2.83560000       2.44740000       1.18750000      -0.22021991       0.02750039      -0.30548561
C        1.53190000       1.67280000       1.15110000      -0.08955304      -0.29318571      -0.67252272
H        8.92550000       0.30320000      -0.62290000      -0.00825705       0.15382905       0.16529754
O        3.14610000       3.16810000       2.09700000      -0.10822232      -0.04488065      -0.18434501
O        1.07850000       1.34710000      -0.08180000       0.37947577       0.44963074       0.56359625
O        5.77560000       2.70880000       0.66070000       0.49946341       0.58689928       0.43113163
C        0.93650000       1.04470000       2.21610000       0.00271931      -0.43076745       0.20292091
C        0.00000000      -0.00000000       1.81300000       0.22657347       0.35672528      -0.07295100
O        1.19060000       1.32470000       3.49480000       0.24981597      -0.39444301       0.07626290
C        1.96210000       0.37490000       4.24280000      -0.05611301       0.16807859      -0.29199809
H        2.96320000       0.26380000       3.79560000      -0.17195845       0.26951930       0.25024098
S        0.00000000       0.00000000       0.00000000       0.07094929      -0.16829568      -0.30335754
S       -0.91710000      -1.01690000       2.69000000      -0.22437769      -0.18971810       0.60103041
H        1.45520000      -0.59980000       4.28940000      -0.15672946      -0.06422560       0.27066314
H        2.05820000       0.79180000       5.25210000      -0.01634226      -0.02196993      -0.20670348
19
Properties=species:S:1:pos:R:3:MACE_forces:R:3 Energy=4.1545404945416795 MACE_energy=1.5436818599700928 pbc="F F F"
Au       0.74840000       2.12400000      -0.52900000       0.08002726      -0.23289201       0.27724487
S        0.00000000       0.00000000       0.00000000       0.03531721       0.08697437       0.18292096
C        0.00000000       0.00000000       1.76670000      -0.50937945       0.13911785       0.36326459
C        1.16120000       0.00000000       2.58040000       0.15472835       0.10740156      -0.14976227
Br       2.88720000       0.16680000       1.81220000       0.00459406       0.10898006      -0.90675008
C        1.08120000      -0.11650000       3.96200000      -0.80735505      -0.01405325      -0.19499968
C       -1.22750000      -0.07410000       2.43720000       1.15339231      -0.13405012       0.16708037
H        1.99500000      -0.14310000       4.55280000       0.24009827      -0.38314119      -0.64622426
C       -0.16030000      -0.25050000       4.62490000       0.24585329       0.26672211       0.36000794
H       -2.13940000      -0.01480000       1.83810000       0.39190990      -0.09403451      -0.65146673
C       -1.34600000      -0.18350000       3.82900000      -0.60814351       0.10064701      -0.04262610
C       -0.09820000      -0.44420000       6.05790000      -0.22263840       0.14441672      -0.49571168