29
Properties=species:S:1:pos:R:3:MACE_forces:R:3 Energy=0.2594076500987332 MACE_energy=0.07711420953273773 pbc="F F F"
C       -4.47270000      -0.34670000       5.80970000      -0.04575399      -0.01128983      -0.15579072
C       -3.00570000       0.09490000       5.75600000       0.34900886       0.08167274      -0.14462419
C       -2.48380000       0.01200000       4.34910000      -0.51632547       0.00640013       0.56166118
N       -3.26380000       0.00380000       3.28640000       1.23616016      -0.08443461      -0.48169282
N       -2.49180000      -0.00220000       2.17740000       0.14522509       0.04689260       0.91341692
C       -1.22420000       0.00230000       2.54910000      -0.56675446       0.06306837      -0.65160555
N       -1.15680000       0.01020000       3.93370000      -0.70497191       0.07677171      -0.88699353
C        0.08860000      -0.00580000       4.59070000       0.10497457      -0.11659884      -0.45088637
C        0.25040000      -0.02730000       5.98410000       0.18821581       0.14953043      -0.00816184
C        1.52790000      -0.04260000       6.53510000       0.05356474       0.03153579       0.21726124
C        2.66180000      -0.03640000       5.70790000      -0.08761115      -0.00348452       0.21255764
C        2.51020000      -0.01890000       4.33060000       0.24966730       0.01217401      -0.07177296
C        1.22930000      -0.00600000       3.73570000      -0.00482012       0.01879598      -0.16576764
N        1.15250000       0.00000000       2.36370000      -0.42508787      -0.01216951      -0.36907262
C       -0.00000000       0.00000000       1.76210000       0.35580066       0.01838921      -0.07135866
S        0.00000000       0.00000000       0.00000000      -0.20908451      -0.00280573       0.29744384
C       -2.83740000       1.52140000       6.31310000      -0.10761957       0.51963794       0.21720527
H       -4.83700000      -0.29980000       6.84710000      -0.17097846      -0.07855067      -0.29909223
H       -4.59560000      -1.37450000       5.43940000       0.02633524      -0.05441732       0.08894572
H       -5.09860000       0.30600000       5.18550000      -0.14625645      -0.00007580       0.12086274
H       -2.42390000      -0.60470000       6.37770000      -0.27876294      -0.83422828       0.37072504
H       -0.61050000      -0.03390000       6.64450000       0.10458387      -0.15285549       0.69745016
H        1.63950000      -0.05860000       7.62110000      -0.12648806      -0.02720794      -0.33574939
H        3.66080000      -0.04640000       6.14880000      -0.15643284       0.00008140      -0.26400304
H        3.36630000      -0.01700000       3.65440000       0.32425833      -0.05032258       0.10955632
Au      -2.31640000      -0.00660000      -0.36610000       0.47551185       0.00332741       0.70773387
H       -1.79570000       1.87150000       6.26510000      -0.23560043       0.13906328      -0.03790698
H       -3.45510000       2.22360000       5.73220000       0.04551319       0.00394540       0.03575113
H       -3.16390000       1.56370000       7.36370000       0.12372881       0.25715482      -0.15609267
26
Properties=species:S:1:pos:R:3:MACE_forces:R:3 Energy=0.39960864752643455 MACE_energy=0.22643518447875977 pbc="F F F"
Br      -1.68690000       3.08200000       5.80590000      -0.08216050       0.39716858       0.13143265
C       -2.22770000       1.22050000       6.11320000      -0.08749542       0.28153503      -0.18593456
C       -2.32550000       0.43900000       4.80480000      -0.22645201      -0.01016252      -0.28071502
O       -3.39200000      -0.06560000       4.52280000      -0.04440027      -0.00402211       0.63535321
C       -1.10470000       0.31630000       3.94030000       0.50785011      -0.52665520      -0.10980132
C        0.15240000       0.37130000       4.56640000      -0.35401446       0.05423639       0.26744276
C        1.32440000       0.20440000       3.84270000      -0.00835463      -0.11803142       0.36231276
C        1.22600000       0.00000000       2.47240000      -0.39165953       0.17868677       0.02924281
C        0.00000000       0.00000000       1.78720000       0.27184108       0.23756488       1.00881004
C       -1.20200000       0.14290000       2.53420000       0.11915693      -0.26752782      -0.28926647
C       -2.53150000       0.09580000       1.81810000       1.02751350      -0.14217840       0.25613177
C       -3.07030000      -1.33620000       1.68830000       0.04742311      -0.23173185      -0.79756582
S        0.00000000       0.00000000       0.00000000      -0.95403767      -0.12825494      -0.00298715
N        2.49830000      -0.23500000       1.75940000       0.19819471      -0.04638349      -0.38198718
O        3.31970000       0.66130000       1.79830000      -0.00884901      -0.34386888      -0.18376237
O        2.65320000      -1.32430000       1.23790000       0.10843761       0.24141042      -0.04310016
H       -3.22250000       1.23810000       6.56900000      -0.01045518      -0.09621741       0.10434018
H       -1.50230000       0.78930000       6.81470000       0.27661017      -0.19115351       0.25185812
H        0.22530000       0.54140000       5.63980000      -0.01980877      -0.05041917      -0.45811269
H        2.30280000       0.23640000       4.32270000      -0.13138179       0.03444830      -0.04462699
H       -2.39420000       0.52080000       0.81540000      -0.17372289       0.34659976      -0.37040284
H       -3.26870000       0.71000000       2.34890000      -0.36016750       0.31470704      -0.54205745
H       -2.35520000      -1.98280000       1.15520000       0.14393786       0.13271183       0.17049588
H       -3.26770000      -1.76460000       2.67980000      -0.15691909      -0.22869660       0.00134865
H       -4.01230000      -1.33720000       1.11840000       0.23856473       0.16265106       0.19173333
Au       0.05350000      -2.25900000      -0.46720000       0.07034869       0.00358342       0.27981782
32
Properties=species:S:1:pos:R:3:MACE_forces:R:3 Energy=2.752434505515633 MACE_energy=2.924257278442383 pbc="F F F"
Br      -4.70520000      -0.15680000       8.46700000      -0.13546024      -0.00689777       0.16792671
C       -3.44810000      -0.11370000       7.03660000      -0.01887337       0.00256644      -0.07219811
C       -2.07980000      -0.09710000       7.32180000       0.08764546       0.01110787      -0.17040233
C       -1.16470000      -0.06610000       6.27130000      -0.22417906      -0.01843618       0.26294398
C       -1.59620000      -0.05030000       4.93350000       0.08791500       0.01822544       0.09623249
C       -2.97750000      -0.06860000       4.67340000      -0.53922725      -0.00892308       0.71038312
C       -3.90260000      -0.10000000       5.71510000       0.21451290       0.00986843       0.00175020
C       -0.64830000      -0.01320000       3.81470000      -0.36903593       0.05768881       0.04756785
C        0.73960000       0.01720000       3.84560000      -0.17106462      -0.09871995       0.34885162
N        1.15730000      -0.00000000       2.53260000      -1.04893470       0.33870247       0.11037367
C       -0.00000000       0.00000000       1.74650000      -0.34489483       0.05843595       0.55029744
N       -1.07230000      -0.00380000       2.50890000       1.69154072      -0.28444663      -0.22706676
S        0.00000000       0.00000000       0.00000000       0.13515010      -0.28722569      -0.56833112
C        2.49710000       0.13830000       2.09480000       0.08866251       0.26174012      -0.64706624
C        3.02780000      -0.74880000       1.14780000      -0.43835157       0.22222675       0.31078106
C        4.33860000      -0.58790000       0.70940000       0.06209244      -0.15869835      -0.16416499
C        5.10310000       0.45570000       1.23180000       0.05706790       0.00585843       0.11433536
C        4.59540000       1.34250000       2.17990000       0.17469305       0.12967132       0.03820170
C        3.27980000       1.18240000       2.60850000      -0.37675792      -0.25666767       0.04053963
N        6.49390000       0.62790000       0.76610000       0.33253545       0.00423634      -0.13757685
O        6.90800000      -0.15870000      -0.06890000       0.13047555       0.20824903       0.07283355
O        7.13710000       1.54660000       1.24640000       0.13361467      -0.14556089      -0.22932827
H       -1.73560000      -0.10940000       8.35680000       0.36447054       0.00508780      -0.00452253
H       -0.09780000      -0.05530000       6.50530000      -0.03897936       0.04531971       0.15557292
H       -3.31150000      -0.05750000       3.63500000      -0.41726950      -0.19133273      -0.10579934
H       -4.97290000      -0.11390000       5.50440000      -0.09705496       0.01000910      -0.47450051
H        1.45340000       0.01700000       4.66410000       0.22526391      -0.35642183      -0.04604674
Au       0.93620000       2.06620000      -0.48140000       0.69634902      -0.19973664       0.21656588
H        2.40770000      -1.55390000       0.75720000      -0.06823274       0.02712648      -0.53732800
H        4.78280000      -1.25900000      -0.02440000      -0.38488799      -0.12857355       0.08654820
H        5.22940000       2.14460000       2.55540000      -0.30733207       0.02521583       0.20774963
H        2.84530000       1.87630000       3.32950000       0.49854696       0.70030451      -0.15512322
21
Properties=species:S:1:pos:R:3:MACE_forces:R:3 Energy=0.6808932386017097 MACE_energy=0.5215873718261719 pbc="F F F"
N       -2.59750000       0.79570000       5.80620000       0.34351069      -0.27201661      -1.28598225
C       -2.59410000       0.32900000       4.52020000      -0.54633594       0.07212010       0.75268674
O       -3.61350000       0.00780000       3.93690000      -0.34406465       0.05418796      -0.14453481
C       -1.24190000       0.21840000       3.86360000       0.01753752       0.00198593       0.18727097
C       -0.04280000       0.16890000       4.58590000       0.49636605       0.09822125       0.47768438
C        1.16960000       0.04960000       3.91140000       0.13473818      -0.00413696      -0.07430831
O        2.33300000       0.05250000       4.66060000       0.10638153      -0.36600241       0.00890732
C        3.25030000      -0.95000000       4.56500000      -0.04094203      -0.02896725      -0.20035432
F        3.68510000      -1.23160000       5.79080000      -0.17055546       0.19742811      -0.14369492
F        4.30130000      -0.58260000       3.83390000      -0.03532364       0.04000678       0.18088581
F        2.73280000      -2.06010000       4.02970000      -0.05642502       0.14533508       0.15001866
C        1.19300000       0.00000000       2.51600000      -0.22512674       0.08519103       0.14321664
C        0.00000000       0.00000000       1.77490000       0.13838451      -0.30337691      -0.14300781
C       -1.21300000       0.10100000       2.46960000      -0.05616488       0.09535180      -0.02229320
S        0.00000000       0.00000000       0.00000000      -0.21164098      -0.14288741       0.17148179
F        2.36900000      -0.10560000       1.90050000      -0.49277818      -0.11762036      -0.02563806
H       -1.81180000       1.30570000       6.18670000       0.18880464      -0.22616856      -0.23042560
H       -3.50570000       0.94530000       6.23080000      -0.19168505       0.08601254       0.25525072
H       -0.01640000       0.18600000       5.67590000       0.51590961       0.06320489      -0.06892651
H       -2.15840000       0.08420000       1.92630000       0.42232257       0.07927448      -0.31698853
Au       1.13290000      -1.94150000      -0.50700000       0.00708743       0.44285661       0.32875139
23
Properties=species:S:1:pos:R:3:MACE_forces:R:3 Energy=-0.07477348545457628 MACE_energy=0.8660710453987122 pbc="F F F"
C        2.30900000       0.28460000       5.99050000      -0.54062355      -0.06855105      -0.22753128
O        2.30400000       0.16190000       4.58670000       0.55187607       0.29767334       0.10354529
C        1.11990000       0.13430000       3.92400000      -0.47350132       0.09097788       0.18789122
C       -0.11580000       0.23390000       4.57490000      -0.01975890       0.03995676       0.46001256
C       -1.27920000       0.21190000       3.80690000       0.09436259       0.13013119      -0.39979005
F       -2.45900000       0.30880000       4.43900000      -0.63809258      -0.05922127      -0.10830224
C       -1.25060000       0.09760000       2.42870000      -0.14660886       0.19235010       0.39268672
C        0.00000000      -0.00000000       1.78690000      -0.41560015      -0.03365902       0.44402939
C        1.20560000       0.00000000       2.51670000      -0.18308493       0.05761864       0.24564131
C        2.56420000      -0.09430000       1.87050000      -0.08660121       0.48270190      -0.14756145
C        3.15530000       1.28210000       1.53750000      -0.08909082      -0.27617466      -0.22949868
S        0.00000000       0.00000000       0.00000000       0.64236462       0.01791612       0.19373579
H        1.78830000      -0.55970000       6.47650000       0.22007085      -0.09611826       0.12801512
H        3.36210000       0.28150000       6.30050000       0.12477440      -0.02964963       0.09355175
H        1.84000000       1.22890000       6.31960000       0.25041121      -0.04227663      -0.02555736
H       -0.20550000       0.33340000       5.65470000       0.42779082      -0.08820559      -0.14542109
H       -2.17620000       0.08880000       1.85440000       0.33499721      -0.13009283      -0.52451915
H        2.48450000      -0.68920000       0.95000000       0.09420147      -0.21601205      -0.17373550
H        3.24190000      -0.62590000       2.55420000       0.14540003      -0.31777775      -0.27746493
H        4.15390000       1.18120000       1.08310000       0.02472534      -0.07763220       0.00031083
H        2.50900000       1.81830000       0.82570000      -0.27873945      -0.07105206      -0.05652208
H        3.25370000       1.89630000       2.44590000       0.00185897       0.22899696       0.18438290
Au       0.14060000      -2.24100000      -0.51710000      -0.04113190      -0.03190005      -0.11789904
34
Properties=species:S:1:pos:R:3:MACE_forces:R:3 Energy=0.024418565465163643 MACE_energy=-0.5766333341598511 pbc="F F F"
S        0.00000000       0.00000000       0.00000000       0.43203196       0.19774909      -0.14664340
C       -0.00000000       0.00000000       1.84450000      -0.40450549      -0.47810447       0.07603262
C        1.37640000      -0.00000000       2.54000000      -0.10724653       0.36939073      -0.63566899
C        2.22820000      -1.21860000       2.09480000      -0.36276108       0.39218497      -0.56191063
C        3.11240000      -1.73220000       3.22510000       0.10147738      -0.64896053       0.36122546
O        2.36310000      -2.19020000       4.33670000       0.18092333      -0.35815394       0.50608706
C        1.12540000      -1.53270000       4.55350000       0.45179963      -0.04009135      -0.15227292
C        1.14260000      -0.08670000       4.07550000       0.19303730       0.22546335       0.23808753
C        2.14930000       1.27260000       2.20110000       0.08198690      -0.52246052      -0.05660880
O        1.37250000       2.39760000       2.61200000       1.34279919      -0.35683510       0.26766634
C        1.46470000       3.55040000       1.93150000      -0.23810019       0.32608104      -0.30602229
C        2.63050000       3.97060000       1.27240000       0.11530015      -0.31928867       0.10159522
C        2.63630000       5.17920000       0.57290000       0.15854561       0.10879766      -0.18146674
Br       4.22610000       5.71600000      -0.32520000      -0.07866096      -0.07033700       0.08173950
C        1.50450000       5.99380000       0.51390000      -0.11813663      -0.08286965       0.10518152
C        0.34410000       5.58160000       1.17510000       0.09947003      -0.15263814      -0.00716454
C        0.31600000       4.37400000       1.87250000       0.13364159      -0.61840892       0.30723071
Cl      -1.14240000       3.85380000       2.67170000      -0.41679710       0.72103906      -0.27034828
Au      -0.00730000       2.25010000      -0.49680000       0.09042427       0.04198451      -0.18833989
H       -0.60610000       0.83780000       2.20870000       0.73367429      -0.30114716      -0.26462924
H       -0.53300000      -0.92780000       2.10920000       0.08231885       0.02242543       0.31443244
H        1.56190000      -2.03430000       1.77220000      -0.23981605       0.50660300       0.19429806
H        2.84110000      -0.96670000       1.21540000      -0.23711920       0.04221168       0.23549396
H        3.82030000      -0.93770000       3.54060000       0.30400461       0.18428415      -0.29420772
H        3.72290000      -2.58250000       2.88200000       0.13675913       0.38964775      -0.29824036
H        0.92500000      -1.58130000       5.63560000      -0.39238146       0.06063556       0.07387094
H        0.30550000      -2.08550000       4.05080000      -0.46115068      -0.08902374       0.16422088
H        1.94630000       0.44710000       4.60840000      -0.04387970       0.19685319      -0.44076478
H        0.20450000       0.41920000       4.35060000      -0.05124426      -0.31460735       0.13142465
H        3.12500000       1.28180000       2.71780000      -0.33672738       0.01826411       0.50447959
H        2.32240000       1.32260000       1.11490000      -0.75078994      -0.26167646       0.29714683
H        3.52700000       3.35370000       1.30580000      -0.09812132       0.30876216      -0.10980681
H        1.52390000       6.93380000      -0.03740000      -0.23131657       0.23004857       0.09601082
H       -0.55730000       6.19550000       1.14560000      -0.06943940       0.27217671      -0.14212868
36
Properties=species:S:1:pos:R:3:MACE_forces:R:3 Energy=1.5213864380491338 MACE_energy=0.1718693971633911 pbc="F F F"
C        2.68420000      -1.95630000       8.09760000      -0.01731601       0.01468942       0.31987244
N        3.50180000      -0.76800000       7.88030000      -0.06658576       0.57979417      -0.17623702
C        3.34750000       0.07830000       6.80700000      -0.13515729      -0.31703433       0.07992588
O        4.19730000       0.89490000       6.47960000       0.18128541       0.26748043      -0.22669671
C        2.05830000      -0.00810000       6.02920000       0.06089996      -0.22243452      -0.22493437
C        0.79860000       0.00520000       6.66720000      -0.34327704       0.22922370       0.29760969
C       -0.36270000       0.01760000       5.90960000      -0.21950871       0.02650454       0.35828522
C       -0.28970000       0.00460000       4.50820000       0.01119911      -0.14918604      -0.10835954
C        0.96820000       0.00250000       3.85370000       0.36160937       0.05953267      -0.25191826
C        2.13670000       0.01130000       4.64020000       0.04471087       0.01619447      -0.07137102
N        1.08540000       0.00000000       2.47560000      -1.06328142      -0.06180195      -0.05829634
C        0.00000000       0.00000000       1.77000000       0.31456226      -0.02702984       0.52863669
N       -1.26000000      -0.00080000       2.32430000       0.57119495       0.06995010       0.24571508
C       -1.51960000       0.00220000       3.70400000      -0.10014535      -0.00815658       0.23101181
O       -2.66060000       0.00260000       4.12200000      -0.27769807       0.04255103      -0.17400198
S        0.00000000       0.00000000       0.00000000      -0.39128768       0.00337634      -0.38598609
C        4.69940000      -0.60260000       8.70320000       0.41717318      -0.91503865       0.24041294
C        5.76780000      -1.70500000       8.44740000      -0.25095373       0.27207005      -0.06383948
S        5.83540000      -2.78720000       9.92600000       0.23582381      -0.15710358      -0.36172923
C        5.44870000      -1.33620000      10.97900000       0.05739341       0.10709498       0.29794121
C        4.37010000      -0.56390000      10.21880000       0.66003585       0.23004529       0.10694941
H        3.31800000      -2.76000000       8.49950000       0.27749991       0.08348589      -0.04074626
H        2.24140000      -2.30060000       7.15510000       0.12023324      -0.06980908       0.21620756
H        1.86570000      -1.78820000       8.81750000       0.39622819       0.10360946      -0.15191673
H        0.74120000       0.02660000       7.75630000       0.32517490       0.06705216      -0.17417392
H       -1.35030000       0.03910000       6.37410000       0.19651628      -0.02551111      -0.06028508
H        3.10670000       0.04150000       4.14370000       0.35817575       0.02995152       0.46784094
H       -2.08240000       0.00180000       1.72660000       0.19590050      -0.03046348      -0.61980104
Au       2.29250000       0.05210000      -0.31360000      -0.04416674       0.00018566       0.22750875
H        5.12850000       0.35240000       8.38110000      -0.27650592      -0.15646148       0.25533262
H        5.53040000      -2.30770000       7.56030000      -0.08382335       0.20334700       0.21970245
H        6.75470000      -1.24570000       8.28640000      -0.53995836      -0.01099338       0.19559433
H        6.36190000      -0.73470000      11.11970000      -0.32121819      -0.42105588      -0.15266645
H        5.11310000      -1.68670000      11.96520000       0.07727949       0.25970149      -0.14031346
H        3.39820000      -1.04420000      10.40050000      -0.40296772      -0.00054711      -0.48600891
H        4.28950000       0.47550000      10.57410000      -0.32904494      -0.09321335      -0.35926491
27
Properties=species:S:1:pos:R:3:MACE_forces:R:3 Energy=-0.026348834713554224 MACE_energy=-1.1724095344543457 pbc="F F F"
O       -1.74440000       0.35400000       4.71160000      -0.17207733       0.23036566       0.17302307
C       -0.94210000       0.20020000       3.82220000       0.18723616      -0.07247625      -0.34295493
N       -1.20610000       0.06210000       2.46590000       0.52903187       0.43728462       0.55815029
C        0.00000000       0.00000000       1.75390000       0.00510912       0.21175180       1.07636619
N        1.04250000       0.00000000       2.51380000      -0.53572196      -0.65275049      -0.93758011
C        0.59740000       0.13980000       3.89010000      -0.14728585      -0.08324207       0.14645247
C        1.20170000       1.38230000       4.55690000      -0.35790420      -0.21409190       0.13497019
C        2.74290000       1.36990000       4.62640000      -0.20142350       0.18820381      -0.48992467
C        3.42660000       1.34930000       3.27780000       0.79209429       0.53452420      -0.37639245
C        4.14280000       0.21320000       2.84800000      -0.51914859       0.35858122      -0.00808860
C        4.65750000       0.12890000       1.56240000      -0.27662328       0.09084515       0.06456441
C        4.46490000       1.19400000       0.64290000       0.06872565       0.02971970       0.06635246
C        3.81980000       2.37460000       1.10040000       0.07416670       0.03595151       0.14578494
C        3.31650000       2.44040000       2.40830000      -0.07725877      -0.51472044       0.14304492
S        0.00000000       0.00000000       0.00000000      -0.49702156       0.07353771       0.26699296
H       -2.12960000       0.13070000       2.05430000       0.31377858      -0.42814332      -0.48476455
H        0.87870000      -0.75430000       4.47940000      -0.31733087      -0.14101867       0.16233321
H        0.86400000       2.27340000       4.00170000      -0.18947011       0.13658676      -0.21542415
H        0.78960000       1.46650000       5.57510000      -0.05958335      -0.09134938       0.25760591
H        3.06320000       2.26810000       5.18140000       0.13505411      -0.06764453       0.18926583
H        3.07350000       0.50020000       5.21620000       0.15114591      -0.16515628       0.24940854
H        4.24910000      -0.63500000       3.52740000       0.33445948      -0.17265689      -0.04953432
H        5.19450000      -0.76570000       1.24130000       0.14763698       0.07783995       0.01388109
H        4.98110000       1.18760000      -0.32080000       0.20099476       0.01892874       0.13716927
H        3.75360000       3.24560000       0.44490000       0.19291294       0.02754500       0.16368142
H        2.79320000       3.34290000       2.73200000       0.14693898       0.24941927      -0.26244265
Au       2.27520000       0.66140000      -0.01060000       0.07156375      -0.09783484      -0.78194058
22
Properties=species:S:1:pos:R:3:MACE_forces:R:3 Energy=0.9833545750557026 MACE_energy=-0.33648425340652466 pbc="F F F"
Br      -2.30600000      -1.15850000       6.43480000      -0.52933323      -0.03974577       0.34753716
C       -2.43870000      -0.10300000       4.77910000      -0.07064200      -0.39394006       0.75514579
C       -1.16400000      -0.07320000       3.95790000       0.35276425      -0.04110127       0.04205877
C        0.06780000      -0.09360000       4.60990000       0.31110737       0.11842708       0.28540874
C        1.25170000      -0.04470000       3.87520000      -0.11942786       0.00609163      -0.26206228
C        1.22050000      -0.00000000       2.49020000       0.18013880       0.02746231      -0.69921076
C       -0.00000000      -0.00000000       1.78980000       0.34629619       0.10581998      -0.03617460
C       -1.20460000       0.01230000       2.54080000      -0.12926584      -0.11420737       0.02559976
C       -2.57180000       0.11090000       1.88460000      -0.20226097       0.16080160      -0.03942151
F       -3.33250000       1.04450000       2.49620000      -0.27613136       0.43880674      -0.65322500
F       -2.53230000       0.45540000       0.59430000      -0.10281305      -0.12160996       0.27140588
F       -3.24480000      -1.05480000       1.96470000      -0.20728798      -0.12412734      -0.46361661
S        0.00000000       0.00000000       0.00000000      -0.12633289      -0.12269618      -0.25088939
C        2.57320000      -0.09910000       4.60310000       0.09945214      -0.05660751       0.19564688
F        2.85360000      -1.35080000       5.00690000       0.12073209       0.11074071       0.07073469
F        2.56150000       0.67620000       5.69940000       0.12416523      -0.09156275       0.00014374
F        3.59250000       0.30670000       3.82720000       0.16159980       0.12352444       0.08898806
H       -3.27550000      -0.55030000       4.24180000       0.09830128      -0.26863661      -0.34939492
H       -2.72670000       0.90630000       5.09940000       0.17524271       0.23222774       0.26331457
H        0.09970000      -0.15970000       5.69680000       0.01853301       0.08912663      -0.09012239
H        2.15560000       0.03270000       1.93370000      -0.02643260      -0.24104756       0.17745034
Au       2.06530000      -0.82300000      -0.60320000      -0.19840500       0.20225352       0.32068306
26
Properties=species:S:1:pos:R:3:MACE_forces:R:3 Energy=1.3907134455165095 MACE_energy=2.0557773113250732 pbc="F F F"
N        3.07210000      -1.48190000       2.07640000      -0.10572177       1.24802744       1.14671636
C        2.56090000      -0.11440000       1.92790000       0.23214842      -0.95823312      -0.09884050
C        1.19030000       0.00000000       2.54490000       0.08118029      -0.22436549       0.34422910
C        1.06010000       0.03320000       3.94170000      -0.43488768      -0.61989594      -0.17319591
O        2.23700000       0.03550000       4.67320000       0.20091578      -0.25930908       0.31908864
C        2.45720000      -0.95890000       5.58140000       0.04310133      -0.01277585      -0.03140726
F        1.75420000      -0.74030000       6.72710000       0.01252793       0.24806768      -0.58381099
F        2.06480000      -2.15800000       5.11420000       0.34214547       0.01358493      -0.12540229
C       -0.17360000       0.12380000       4.58230000       0.27585346      -0.25916052       0.71857607
C       -1.33300000       0.14030000       3.80400000      -0.00050705      -0.20424357      -0.11920384
C       -1.25870000       0.05810000       2.41300000       0.02407967      -0.01924183      -0.22180179
C        0.00000000       0.00000000       1.78750000      -0.16615166      -0.06182065       0.02859843
S        0.00000000       0.00000000       0.00000000      -0.11703445       0.31344175       0.16627857
O       -2.52060000       0.21200000       4.49400000       0.05921020      -0.13092983      -0.28671607
C       -3.61910000       0.74270000       3.87440000      -0.06945265       0.14171511       0.12160374
F       -4.20420000      -0.17460000       3.06390000       0.46589556       0.18334424       0.11026405
F       -4.49600000       1.05740000       4.83170000      -0.15550607       0.02030011      -0.03170212
H        2.36340000      -2.16230000       1.79690000      -0.89344615      -0.38843459      -0.45457962
H        3.88000000      -1.62800000       1.47080000       0.30413124      -0.06514479      -0.44481164
H        3.24790000       0.56520000       2.45610000      -0.03622850       0.24698344      -0.07874575
H        2.48620000       0.22990000       0.88220000       0.19036390       0.32760060       0.02998821
H        3.53140000      -0.97170000       5.81770000      -0.05495787      -0.00363322      -0.27731636
H       -0.24140000       0.17690000       5.66700000      -0.34870315       0.70711964      -0.01047602
H       -2.15720000      -0.00160000       1.80170000       0.40908909      -0.24441016      -0.43413207