19
Properties=species:S:1:pos:R:3:MACE_forces:R:3 Energy=3.0383211815711757 MACE_energy=1.7291008234024048 pbc="F F F"
C       -1.23660000       0.00610000       2.47720000       0.16140629       0.03943413       0.10479000
C        0.00000000      -0.00000000       1.76850000       0.70564401       0.08715951       0.11186385
C       -1.12190000       0.13770000       3.89490000      -0.34295058       0.13926771       0.71745104
N        1.17140000      -0.00000000       2.40550000      -0.46677676      -0.11821408      -0.41313186
C        1.14750000       0.03610000       3.74710000      -0.37649000      -0.01913336       0.60969579
N        0.05740000       0.14400000       4.51730000      -0.57209492      -0.01379785      -0.92767853
S        0.00000000       0.00000000       0.00000000       0.03494556      -0.11578269      -0.18541569
N        2.34340000      -0.02810000       4.37930000      -0.51985610      -0.06220444      -0.89325416
H        3.19030000      -0.02680000       3.82930000       0.86189532      -0.00042354       0.14374700
C       -2.50440000      -0.08950000       1.73020000      -1.30238390      -0.38037258       0.79312027
O       -2.56790000       0.11820000       0.52430000       0.07428049       0.07291274      -0.39489532
N       -3.64970000      -0.42110000       2.43970000       1.19043422       0.09404012      -0.26135123
N       -2.21470000       0.25400000       4.71330000       0.95005810       0.07476888      -0.38779768
H       -3.54810000      -1.03080000       3.24590000       0.05943726       0.66968191       0.00579629
Au       2.28050000      -0.21940000      -0.38470000      -0.26089555       0.05195162       0.50462729
H       -4.44110000      -0.62740000       1.83720000      -0.02576680      -0.02393582      -0.28622794
H        2.37470000       0.07400000       5.38330000       0.22057813       0.05896578       0.45058739
H       -3.06920000       0.63090000       4.31860000      -0.42393833      -0.60906255       0.11131041
H       -1.98830000       0.51550000       5.66650000       0.03247332       0.05474448       0.19676298
18
Properties=species:S:1:pos:R:3:MACE_forces:R:3 Energy=1.0237702468019112 MACE_energy=0.9275444746017456 pbc="F F F"
C       -0.01740000       0.06180000       4.52700000       0.46788117       0.11618719      -0.21860239
C        1.18080000       0.03000000       3.76910000      -0.88702011      -0.48335505      -0.47301498
C       -1.22780000       0.04950000       3.82880000      -0.27065337       0.00198567       0.33922654
C       -1.24000000       0.01620000       2.43000000       0.11795957      -0.05076423      -0.60932076
N        1.15960000       0.00000000       2.43120000      -0.75359297      -0.04164483       0.39782119
N        2.41740000      -0.01960000       4.35580000       0.69397253       1.47350240      -0.27576673
Cl      -2.74400000       0.08180000       4.67070000       0.66065443      -0.02719543      -0.25190187
Br       0.06200000       0.11750000       6.42200000       0.16748108      -0.11017486      -0.10656707
C        0.00000000       0.00000000       1.77550000       0.35321090      -0.02141671      -0.36130577
H        2.50230000       0.20230000       5.34070000       0.01942760      -0.28957307       0.53288126
S        0.00000000       0.00000000       0.00000000      -0.07583377       0.07368313      -0.34671819
Au       2.27460000       0.06660000      -0.40850000       0.06074982       0.19757611       0.97408670
N        3.56900000       0.12570000       3.59110000      -0.81245148       0.96991754       0.64702731
H       -2.18400000       0.01540000       1.88780000      -0.20613641       0.02883166       0.55183697
H        3.52070000      -0.60280000       2.87640000       0.39648262      -1.20268893      -0.84524214
N        3.66670000       1.41460000       3.01270000      -0.19967121      -0.60499680       0.75345564
H        4.65000000       1.62310000       2.85460000       0.79973936       0.19456172      -0.01356627
H        3.13900000       1.48420000       2.13700000      -0.53219986      -0.22443533      -0.69432914
26
Properties=species:S:1:pos:R:3:MACE_forces:R:3 Energy=2.2855255302306623 MACE_energy=1.480325698852539 pbc="F F F"
C       -1.19840000      -0.08570000       2.53430000       0.13553828      -0.35220051      -0.09139612
C       -1.14660000      -0.19260000       3.93410000      -0.63351685       0.12475684       0.54273230
C        0.00000000       0.00000000       1.77670000      -0.00230756       0.30059606       0.12021637
C       -2.53050000      -0.07970000       1.84650000       0.47955024      -0.04298051      -0.55873048
C        0.11440000      -0.17920000       4.57850000       0.34272745      -0.00208904       0.03221188
C        1.29780000      -0.08650000       3.83030000      -0.25879639      -0.06303962      -0.02596198
C        1.23250000       0.00000000       2.44390000      -0.19747384      -0.15344067      -0.30401933
H        2.27050000      -0.08290000       4.31990000       0.15623939       0.01037261      -0.56464863
C       -2.40160000      -0.32750000       4.75940000      -0.06872615       0.31499118      -0.32872429
H        2.14950000       0.06990000       1.85680000      -0.17751206       0.15329023      -0.29464698
S        0.00000000       0.00000000       0.00000000       0.24491484       0.00437185      -0.05195148
H       -3.08830000      -1.05840000       4.30940000       0.06945819      -0.18925720       0.66690922
Au      -0.08520000       2.24190000      -0.55300000       0.07412952      -0.21629792       0.24316464
H       -2.93870000       0.63440000       4.83110000       0.23172632      -0.22070858       0.16877246
O        0.09650000      -0.26240000       5.92870000      -0.26185414      -0.00309767       0.58241248
H       -2.16400000      -0.64780000       5.78000000       0.20135377       0.07511076      -0.00509229
H       -3.29320000       0.44990000       2.42780000      -0.09092230      -0.00074577      -0.05883841
C        1.31410000      -0.28870000       6.65850000      -0.59408951      -0.02998436      -0.82052231
H       -2.45860000       0.35100000       0.84380000      -0.18871768       0.18419905      -0.07422304
Cl      -3.16710000      -1.77420000       1.61140000       0.06240579       0.08261356      -0.22666863
H        1.93100000      -1.14430000       6.32690000       0.07998353      -0.02980324       0.59014976
H        1.89040000       0.63360000       6.45880000       0.14158480       0.00740191       0.59545147
C        0.97290000      -0.40480000       8.12980000      -0.24397904      -0.01522454       0.27196708
H        0.40820000      -1.32890000       8.32530000       0.30414286       0.09816482      -0.18513563
H        0.35980000       0.44980000       8.45380000       0.30464342      -0.04986031      -0.17678419
H        1.89330000      -0.42360000       8.73300000      -0.11050296       0.01286114      -0.04664399
19
Properties=species:S:1:pos:R:3:MACE_forces:R:3 Energy=3.089321534287597 MACE_energy=3.2623493671417236 pbc="F F F"
C        0.00000000       0.00000000       1.74510000      -0.23896559       0.39937061       0.38057557
C       -1.21270000      -0.01090000       2.46580000       0.34120059      -0.14856708       0.55167556
C       -1.23210000      -0.05030000       3.84590000      -0.17603299      -0.01647527      -0.08753294
F       -2.37270000       0.02200000       1.81540000      -0.13536175       0.07437819      -0.24838823
C       -0.02940000      -0.08820000       4.58550000      -0.72452891      -0.00046483       0.84100455
C        1.22300000       0.00000000       2.48590000       0.45333427       0.06619330      -0.36967725
F       -2.40040000      -0.09500000       4.52390000       0.37085149      -0.00186911       0.36561686
S        0.00000000       0.00000000       0.00000000       0.36568683      -0.38563859      -0.95889664
C        1.19940000      -0.05760000       3.90150000       0.14132273      -0.02177064      -0.00768438
N        2.45290000      -0.06960000       4.58900000      -1.64262414      -0.18689743      -0.19625166
H        2.65250000      -0.95380000       5.05790000       0.20423913       0.37399867       0.01361167
N       -0.09370000      -0.10640000       5.95690000      -0.17489757       0.24015249      -1.68789852
Au       0.36310000       2.23250000      -0.56030000      -0.30102801       0.37591988       0.26863649
N        2.41360000       0.10180000       1.85080000       0.13479879       0.10780724       1.02655697
H        0.72590000      -0.42820000       6.45460000       1.03439033      -0.10907275       0.56768703
H       -0.98740000      -0.33920000       6.37120000      -0.55810666      -0.12209304      -0.00608516
H        2.43820000       0.03180000       0.84130000      -0.68144238      -0.60820675      -0.87039804
H        3.24820000       0.04920000       2.42070000       0.92740661       0.09835796       0.51699018
H        2.54400000       0.68580000       5.26790000       0.65975732      -0.13512278      -0.09954229
25
Properties=species:S:1:pos:R:3:MACE_forces:R:3 Energy=6.339340075138625 MACE_energy=2.227506399154663 pbc="F F F"
C       -1.22110000       0.07950000       2.46070000      -0.54779953      -0.05744300       0.26158896
C       -1.22780000       0.17020000       3.85600000       0.05176353      -0.06448657      -0.56503683
C       -0.01350000       0.13540000       4.58280000      -0.50091356      -0.31027097       0.78230321
C        0.00000000       0.00000000       1.76770000       0.12592410      -0.24110550       0.09015517
C        1.22080000       0.00000000       2.47700000       0.39606464       0.09194037      -0.63564360
S        0.00000000       0.00000000       0.00000000      -0.37470648       0.29503626      -0.49134284
N       -2.38970000       0.33530000       4.63060000      -0.16368216      -0.09892440      -0.54064530
Au       0.57420000      -2.17820000      -0.53810000      -0.33298156      -0.43385088      -0.08462308
C        1.19630000       0.07510000       3.87460000       0.15604079       0.04289452      -0.18067911
O        2.36210000       0.09640000       4.56790000       0.17350671       0.50127459      -0.47846848
H       -2.16280000       0.07190000       1.91960000       0.44808513      -0.10896821      -0.37605578
H        3.05260000       0.20000000       3.88140000      -0.35339946      -0.27544796       0.47243917
N       -0.01880000       0.24110000       5.98200000       0.06271531      -0.00225227      -1.48465514
H       -0.55760000      -0.49490000       6.43790000      -0.14798588      -0.20171225       0.28599435
N        2.51450000      -0.07980000       1.89020000       1.24212122       0.97633791       1.81692827
H        2.49450000       0.32270000       0.95140000      -1.22319722       0.21158509       0.15743825
H       -2.21200000       0.71630000       5.55500000      -0.19589499       0.11777182       0.84803486
H        2.79800000      -1.05650000       1.76510000      -0.27583387      -0.92580378      -0.34378898
C       -3.70240000       0.19790000       4.23990000       1.10791624      -0.12640101      -0.23163053
O       -4.04470000      -0.18300000       3.13670000      -0.14687119       0.50428510       0.19419843
H        0.92540000       0.25890000       6.35940000       0.78815466       0.19542408       0.52018023
C       -4.71180000       0.58880000       5.30760000      -0.29297006       0.15493810      -0.06363824
H       -4.29540000       0.59760000       6.32590000      -0.30669937       0.20491934       0.04690900
H       -5.10150000       1.59410000       5.07900000       0.01949482      -0.50272721       0.21584237
H       -5.55740000      -0.11050000       5.26040000       0.29114816       0.05298689      -0.21580447
23
Properties=species:S:1:pos:R:3:MACE_forces:R:3 Energy=4.6634288223318885 MACE_energy=3.526785135269165 pbc="F F F"
C        1.20250000      -0.03850000       3.92050000      -0.11136723      -0.15795219      -0.41540357
C       -0.06260000      -0.15460000       4.52540000      -0.25399226      -0.14940824       0.06080081
C        1.24020000       0.00000000       2.48160000       0.27407414      -0.00672270      -0.07529666
C       -1.28340000      -0.16290000       3.83870000      -0.53884333      -0.12739690       0.61152983
C        0.00000000       0.00000000       1.76100000      -0.05070104       0.24388064       0.31019622
N        2.40480000       0.08780000       1.80900000       0.23431720      -0.11277315       1.31498992
C       -1.21740000      -0.05430000       2.44580000       0.56423211      -0.01217973      -0.19579214
C        2.47340000       0.05170000       4.68710000      -0.04523788      -0.17555322       0.13654166
C        2.46280000       0.43660000       6.13140000       0.29296041       0.00013220      -0.70885944
H        3.26030000      -0.05160000       2.34420000       0.52686149       0.07865545       0.76225197
F       -0.16360000      -0.30780000       5.86440000       0.32333443      -0.02977719      -0.63128269
N       -2.48730000      -0.22500000       4.53940000       0.57562822       0.54127598       0.31009626
H       -2.14100000      -0.03510000       1.86360000       0.70757616       0.18695778      -0.63034731
H       -2.40610000      -0.59670000       5.47940000       0.34889448      -0.04749952       0.63458574
H        1.52920000       0.76380000       6.58390000      -0.16494858       0.30229884       0.66712075
H        2.36520000       0.02820000       0.79760000      -0.32306787      -0.72491962       0.44559044
S        0.00000000       0.00000000       0.00000000      -0.74774331      -0.48348799      -0.57948172
C        3.59430000       0.40260000       6.84670000      -0.17708878      -0.13645427      -0.38553423
H       -3.25590000      -0.64410000       4.02750000      -0.36128923      -0.36566606      -0.71695262
H        4.52670000       0.06810000       6.38420000       0.01844762       0.00624952       0.13642097
Au       0.61030000       2.18480000      -0.53080000      -0.43813771       0.90760696      -0.21723530
O        3.55950000      -0.13040000       4.13180000      -0.61531723       0.21757138      -0.85184681
H        3.61270000       0.70500000       7.89650000      -0.03859162       0.04516210       0.01790787
19
Properties=species:S:1:pos:R:3:MACE_forces:R:3 Energy=2.259251131363107 MACE_energy=2.40543794631958 pbc="F F F"
C        0.09260000       0.11250000       4.57450000       1.24461865       0.04563940      -0.15073243
C       -1.19000000       0.03960000       3.90920000      -0.57712328      -0.08401807       0.02299076
C       -1.22960000      -0.00150000       2.46870000       0.69434410       0.02612323      -0.19520065
C        1.22780000       0.04280000       3.72690000      -0.83756268       0.06343375       0.70541584
C        0.10410000       0.24300000       6.03350000      -0.04481362      -0.09246916      -0.66827297
N        1.17660000       0.00000000       2.39660000       0.26229030      -0.01540221       0.80103034
C        0.00000000       0.00000000       1.76820000       0.48225838      -0.02928532      -0.18978950
N       -2.33730000       0.02200000       4.58240000       1.39875031       0.40490401      -0.69843435
C       -2.49550000      -0.05250000       1.75150000      -0.04840965       0.03238555       0.45305240
S        0.00000000       0.00000000       0.00000000      -0.91740072      -0.10640170      -0.45444906
H       -2.30040000       0.02430000       5.59870000      -1.05512571      -0.08732795      -0.52984309
H       -3.19750000      -0.00650000       4.03030000       0.04429451      -0.15161641       1.06764865
Au       2.27480000      -0.04270000      -0.42060000      -0.41939661       0.03429241       0.95904773
O       -0.86200000       0.11930000       6.74620000      -0.65541399      -0.06572866       0.23942283
O        2.45640000      -0.00810000       4.23150000      -0.05666202      -0.08596082      -1.31805801
Cl       1.64280000       0.70240000       6.82850000      -0.34933794       0.10873474       0.50263703
H        3.05150000      -0.05490000       3.46370000       0.19426766      -0.03043796      -0.45267689
O       -3.61130000      -0.05850000       2.25600000       0.14679980       0.00256440       0.30115682
H       -2.39940000      -0.09110000       0.64010000       0.49362215       0.03057079      -0.39494547
17
Properties=species:S:1:pos:R:3:MACE_forces:R:3 Energy=3.6649982376415218 MACE_energy=4.075346946716309 pbc="F F F"
C       -1.15580000      -0.18340000       3.90740000       0.26695216      -0.00855387      -0.03437294
C        0.08580000      -0.16950000       4.55850000      -0.03210032       0.02828542       0.36235967
C       -1.19180000      -0.07500000       2.52420000      -0.20447007       0.00541658      -0.16998860
C        1.29470000      -0.05640000       3.86830000       0.44961280      -0.19637966      -0.37676370
C        0.00000000      -0.00000000       1.76320000       0.37991467       0.05036338       0.14573979
C        1.24330000       0.00000000       2.44700000       0.23381647       0.14935885      -0.33640459
H       -2.07640000      -0.25930000       4.48340000       0.08403946       0.07599755      -0.15248924
N        2.55470000      -0.04660000       4.46990000      -0.49752653      -0.40405834      -1.48442173
Br       0.10980000      -0.27040000       6.46630000      -0.37033397      -0.07289887       0.10369959
N        2.43900000       0.12290000       1.77270000      -0.43261337       0.88065600       1.15884781
S        0.00000000       0.00000000       0.00000000      -0.32139316      -0.20084688      -0.33943582
H        3.21760000      -0.36430000       2.21050000       1.05791914      -0.79685301       0.43928319
H        2.51660000      -0.03900000       5.48550000      -0.22665265      -0.11335775       1.06397402
H        2.35870000      -0.02400000       0.76840000      -0.88545531      -0.92862213      -0.19282889
Br      -2.89470000      -0.02310000       1.67890000       0.39920229       0.01837862      -0.06414109
Au       0.34420000       2.23700000      -0.49900000      -0.67733669       0.67645776      -0.29029125
H        3.15000000       0.70530000       4.12410000       0.77642524       0.83665633       0.16723365
39
Properties=species:S:1:pos:R:3:MACE_forces:R:3 Energy=5.738702430250153 MACE_energy=1.7692950963974 pbc="F F F"
C       -3.60240000      -0.08460000       7.77740000       0.32617033       0.00843348      -0.21126390
N       -2.24400000      -0.34640000       7.90500000      -0.03040245       0.40099305      -0.29230070
C       -1.64390000      -0.26610000       6.70890000      -0.18723387       0.02539750       0.18511295
N       -2.56560000       0.04800000       5.77170000       0.24372785      -0.36055243       0.51329780
C       -4.55960000      -0.06340000       8.86930000      -0.15736455      -0.12810126       0.05979237
C       -1.49720000      -0.50270000       9.15850000      -0.12483580       0.60872680      -0.19362637
C       -3.83320000       0.14250000       6.40480000       0.04666282      -0.11475794       0.19453734
H       -0.59760000      -0.47130000       6.52630000       0.15030280       0.10992283      -0.13136332
C       -4.98990000       0.33060000       5.64050000       0.01831362      -0.01523933      -0.15748918
H       -5.95760000       0.38630000       6.13480000      -0.41003573       0.08014324      -0.02272307
C       -4.85000000       0.36080000       4.24550000      -0.13881451       0.04085725      -0.13208997
C       -4.63080000      -0.98560000       9.97430000       0.17285211      -0.42225784       0.31094587
H       -3.96010000      -1.83770000      10.11440000       0.29184529      -0.27074376      -0.12624139
C       -1.48580000       0.76690000       9.96460000      -0.17854050      -0.28759706      -0.15506516
H       -1.07790000       1.64580000       9.45180000       0.21631303       0.21659374       0.07003821
N       -5.58860000      -0.80000000      10.85100000      -0.11043337       0.19204681      -0.35815710
C       -5.59740000       0.84890000       8.98120000       0.38447458       0.12722795      -0.40293270
C       -1.92940000       0.86130000      11.21850000      -0.05744946      -0.02050566       0.00867312
H       -5.81510000       1.68460000       8.31770000      -0.17802393      -0.08020771       0.28725511
H       -1.92130000      -1.33390000       9.73610000      -0.22240961      -0.16191842      -0.43734616
H       -2.36120000       0.00420000      11.74380000       0.09714234       0.14239472       0.30127040
S       -6.51850000       0.51340000      10.39150000      -0.67589492       0.33600837       0.60654145
H       -0.47450000      -0.79290000       8.87300000       0.25660479      -0.15565923       0.15667659
H       -1.88320000       1.80580000      11.76620000       0.01524567      -0.02353772      -0.03216574
C       -3.60730000       0.28000000       3.63300000      -0.33508775       0.11186758      -0.23886621
H       -5.74020000       0.46670000       3.62160000       0.15489186      -0.04200557       0.08905521
C       -2.39910000       0.18710000       4.36740000       0.38496131      -0.18825354      -0.04567707
H       -3.49820000       0.33690000       2.55200000      -0.14104734       0.17942992      -0.02409223
C       -1.11830000       0.22170000       3.76310000      -0.06797817      -0.29818261      -0.13572721
C        0.14410000       0.53680000       4.41880000       0.74661899       0.32339022      -0.27475339
N       -1.10790000       0.04300000       2.40160000       0.57166123       0.74737781      -0.06104994
H        0.19290000       0.97850000       5.41240000      -0.11332737      -0.32246232       0.28090501
C        1.29080000       0.43000000       3.70060000      -0.29608577      -0.10790984      -0.39132059
H        2.27100000       0.70680000       4.09330000      -0.24515770       0.08654311       0.04691432
C        0.00000000      -0.00000000       1.73120000       0.48112965      -0.41122434       1.09942567
N        1.24440000       0.00000000       2.39150000      -1.11738038      -1.84156346       0.70455313
H        2.07570000      -0.01130000       1.81370000       0.85960567       0.95618224      -0.83789724
S        0.00000000       0.00000000       0.00000000      -0.88379395       0.17542005      -1.20229411
Au       1.55430000      -1.78510000      -0.42230000       0.25277323       0.38372335       0.94944811
26
Properties=species:S:1:pos:R:3:MACE_forces:R:3 Energy=2.4686906654593956 MACE_energy=0.9350181818008423 pbc="F F F"
C       -1.24580000       0.00260000       3.93230000       0.22458673       0.01775013      -0.19153266
C       -1.22770000      -0.00070000       2.48800000       0.09585607       0.00775620      -0.40360662
C        0.01460000       0.00740000       4.63210000      -0.21634105      -0.08027790      -0.25813299
N       -2.37790000       0.00200000       4.63840000       0.67920935       0.10641712      -0.35573068
C        1.21990000       0.00390000       3.89430000      -0.24901749       0.15666410      -0.45160374
C       -0.00000000       0.00000000       1.76520000       0.04756579       0.01934291      -0.05775103
H       -3.25620000      -0.00130000       4.13000000      -0.49083537      -0.02673042       0.50352615
N       -2.45960000      -0.00500000       1.75440000      -0.14539975      -0.01451228      -0.19801567
C        0.03860000       0.00550000       6.09180000      -0.46825537      -0.02040104       0.14001210
O       -3.54470000      -0.00230000       2.34330000       0.35239065      -0.00076136      -0.46036249
H       -2.27600000       0.00740000       5.65730000       0.26873085      -0.03372094       0.29576159
O       -0.94080000       0.00890000       6.83220000       0.04008074      -0.00478776      -0.37713352
C        1.19670000       0.00000000       2.50500000       0.64250666       0.00222456      -0.43508977
S        0.00000000       0.00000000       0.00000000       0.38863945       0.00144311       0.26984131
H        1.04810000       0.00000000       6.55100000      -0.32435048       0.02186987       0.37672442
C        2.58200000       0.06020000       4.56540000       0.00887049       0.01460265      -0.07836178
H        2.14030000      -0.00410000       1.96170000      -0.44107378      -0.11011341      -0.23085597
O       -2.39970000      -0.01170000       0.52250000      -0.11463836      -0.02108453       0.66942257
H        2.65760000      -0.66990000       5.38490000       0.01436580      -0.21188453      -0.39526877
Au       2.24680000       0.02020000      -0.60230000      -0.81868851      -0.07231541       0.85800904
H        3.33330000      -0.23610000       3.81470000       0.18545224       0.00246031       0.35095572
C        2.92240000       1.44120000       5.07060000       0.10657932       0.28555495       0.28284842
H        2.80450000       2.24900000       4.33840000      -0.19073108      -0.18310601      -0.00486098
C        3.34850000       1.72510000       6.30290000       0.25436145       0.01020573       0.00061830
H        3.47190000       0.94570000       7.06240000       0.23708324       0.20193252       0.01878297
H        3.59220000       2.74830000       6.60020000      -0.08694758      -0.06852865       0.13180418
27
Properties=species:S:1:pos:R:3:MACE_forces:R:3 Energy=3.3686192407377438 MACE_energy=2.0827090740203857 pbc="F F F"
C       -1.23530000       0.01420000       2.45870000       0.52716351      -0.20035623      -0.38734803
C       -0.00000000      -0.00000000       1.78230000       0.52500057       0.20087591       0.66754955
C        1.22050000       0.00000000       2.52040000      -0.65998495       0.05169756      -1.33139277
S        0.00000000       0.00000000       0.00000000       0.48601061      -0.17214265       0.37951079
C        1.18360000       0.04590000       3.93450000      -0.46775660       0.42343754       0.88236320
C       -0.07510000       0.06010000       4.59230000       0.07792214       0.16031441      -0.18831661
C       -1.25530000       0.04220000       3.86380000      -0.45194066       0.64524412       0.19969359
C       -2.54020000      -0.08370000       1.72360000      -0.54036325       0.12200664      -0.17927574
O       -2.72370000      -0.84080000       0.78860000      -0.53738689      -0.07288632      -0.47147864
H       -2.21810000       0.01720000       4.37220000      -0.09475480       0.28125617       0.56186926
O        0.00070000       0.05460000       5.95400000      -0.37521037      -0.58762300       0.02766493
C        2.50090000      -0.09500000       1.80150000      -0.57315129      -0.27347052       0.05582279
Au       1.28780000       1.86200000      -0.49800000       0.17113584       0.14579272      -0.02570181
H        2.46860000      -0.73600000       0.91490000      -0.14820763      -0.02250173      -0.36098388
N        2.31100000       0.07480000       4.72520000      -1.14783418      -0.88132805      -0.49843684
C       -1.19270000       0.03190000       6.70210000       0.04714496      -0.29203326      -0.84803963
H        3.16510000      -0.27670000       4.30670000      -0.14085054       0.16844423      -0.05976559
C        3.65960000       0.52310000       2.09470000       0.21550417       0.15383670      -0.19083816
H        3.75280000       1.23730000       2.91630000       0.23302785       0.03411685       0.20506546
H       -1.79240000      -0.87040000       6.48640000       0.25466630      -0.15415916       0.08229078
H        4.54430000       0.35770000       1.47450000       0.18878692       0.17337480      -0.10360453
H        2.15360000      -0.18540000       5.69210000       0.74779832       0.32416996       0.86219001
N       -3.54510000       0.70600000       2.23340000       1.36877835      -0.57402098       0.12768918
H       -3.31570000       1.53160000       2.77210000       0.01730520      -0.51642859      -0.02563441
H       -1.81270000       0.92470000       6.50470000       0.24041523       0.42589521       0.54023564
H       -4.41290000       0.71570000       1.70860000      -0.12090956       0.13032618      -0.12540178
H       -0.90200000       0.02600000       7.76070000       0.15769118       0.30616170       0.20427322
23
Properties=species:S:1:pos:R:3:MACE_forces:R:3 Energy=2.280118457422738 MACE_energy=2.1211233139038086 pbc="F F F"
C        1.20620000      -0.06330000       3.91550000       0.23370029      -0.04566430       0.09894016
C        1.23520000       0.00000000       2.48030000       0.41266793      -0.03604911       0.00864236
C       -0.05110000      -0.13780000       4.58710000       0.04854814       0.06137504       0.22818449
C        0.00000000       0.00000000       1.75070000      -0.22881047       0.14180076       0.44075075
C        2.44160000       0.02450000       4.69170000       0.09109829      -0.07087793       0.11263241
N        2.40290000       0.09430000       1.82860000      -0.61381483      -0.28282717       1.20530605
H        3.25710000       0.08670000       2.38690000       0.24285302       0.25495854       0.24602407
C       -1.25310000      -0.10620000       3.84680000      -0.19421628      -0.10251421      -0.11767349
C       -1.20900000      -0.02610000       2.46500000      -0.08412328      -0.16637829       0.01534728
S        0.00000000       0.00000000       0.00000000      -0.64829290      -0.30806082      -0.41787189
H       -2.13880000       0.00050000       1.89280000       0.66365993       0.11549381      -0.34765637
H        2.38450000       0.09910000       0.81450000       0.28885660      -0.60975146      -0.01543621
N       -0.09950000      -0.23110000       5.95150000       0.95534050      -0.23874456       0.20033754
O        3.56900000       0.07760000       4.19860000      -0.56782728       0.07384446      -0.60219991