25
Properties=species:S:1:pos:R:3:MACE_forces:R:3 Energy=-0.4775343029160025 MACE_energy=-0.06035536527633667 pbc="F F F"
C        5.21020000       2.24450000      -1.57850000       0.35979912      -0.13790405      -0.36253646
C        4.20290000       2.56220000      -0.49560000      -0.47988284      -0.37147069       0.48067737
O        3.76590000       1.31740000       0.07960000      -0.57035834      -0.14995372       0.61196053
C        2.86590000       1.39910000       1.06820000      -0.03047878      -0.63075602       0.07002677
O        2.40460000       2.43040000       1.48470000       0.40248331      -0.14774866      -0.32778272
C        2.54040000       0.01270000       1.61200000      -0.28285664       0.59207797      -0.38847899
C        1.26510000       0.00000000       2.40490000      -0.55082548      -0.82994252       0.64633334
C       -0.00000000       0.00000000       1.77200000      -1.22411549       0.20160997       0.37793055
S        0.00000000       0.00000000       0.00000000       1.43331277      -0.64303339      -0.83779424
C       -1.14320000       0.01320000       2.58250000      -0.34509304      -0.21259700      -1.31331527
C       -0.99840000       0.03310000       3.96980000       0.27574301       0.08802517       0.12144917
N        0.17900000       0.04290000       4.58720000       0.35785538       0.36887595       0.10324231
C        1.27040000       0.02960000       3.81300000      -0.68329358      -0.25597998       0.02452270
C        2.54070000       0.04770000       4.50670000       0.86319268      -0.03321597       0.68540114
N        3.57320000       0.05740000       5.03510000      -0.16166678      -0.05260011      -0.45592749
H        4.75950000       1.61620000      -2.36200000       0.14243294       0.11801809      -0.31718934
H        5.56810000       3.17580000      -2.04390000      -0.01130532       0.10762540       0.03412817
H        6.07760000       1.70920000      -1.16330000       0.30868915       0.16131769      -0.19424102
H        3.32320000       3.09650000      -0.88870000       0.03631608       0.40757236      -0.30910894
H        4.63230000       3.19000000       0.30150000       0.29808742       0.49508914      -0.11938269
H        3.39390000      -0.28920000       2.23880000       0.57619262       0.12678543       0.25208169
H        2.50200000      -0.69680000       0.77120000      -0.63082492       0.47524643      -0.32939875
Au      -2.20660000      -0.08920000      -0.63800000       0.69572932       0.32278547       1.69308698
H       -2.13880000       0.01230000       2.13610000      -0.38268298       0.00957697       0.22233728
H       -1.88810000       0.04440000       4.60890000      -0.39644939      -0.00940401      -0.36802220
48
Properties=species:S:1:pos:R:3:MACE_forces:R:3 Energy=3.5567862618807484 MACE_energy=3.6435563564300537 pbc="F F F"
C        1.60800000      -0.03160000      10.53490000      -0.03446189       0.14663450       0.32743090
C        1.29440000      -0.35530000       9.11280000      -0.36847579       0.11910125       0.34635592
C        0.26590000       0.05500000       8.30890000      -0.33945966       0.46888918       0.55325228
C        0.49460000      -0.45090000       6.97590000       0.33396357      -0.34862652       0.15071228
C       -0.40420000      -0.23680000       5.88970000      -0.43395981      -0.20475443      -0.20975816
C       -0.21460000      -0.18770000       4.52590000      -0.06279227      -0.07949802       0.08284648
C        1.09620000      -0.01330000       3.84650000      -0.35828328       0.00416209       0.42064950
O        2.14450000       0.14970000       4.45050000       0.86749291       0.84518689      -1.15829563
N        1.09750000       0.00000000       2.44920000      -0.70220703       0.31255773      -1.40765619
C       -0.00000000      -0.00000000       1.77190000       1.30618906      -0.05557137       0.32396653
S        0.00000000       0.00000000       0.00000000      -0.06873062       0.15172789      -0.71977925
N       -1.26860000      -0.00810000       2.32900000       1.42113709      -0.46099961      -0.17630783
C       -1.45750000      -0.08470000       3.73330000      -0.20711865      -0.10885695       0.68020046
O       -2.58800000      -0.07770000       4.17830000      -0.52513236       0.02649250      -1.90128946
C       -2.43280000       0.15090000       1.51520000      -0.57913089       0.75827497       0.89827555
C       -3.13190000      -0.96380000       1.04820000       0.14794928      -0.08402867       0.26919791
C       -4.26820000      -0.81400000       0.25730000      -0.48774427       0.38593951      -0.32015929
C       -4.70720000       0.47500000      -0.05930000       0.07547238      -0.38507733       0.04086305
Cl      -6.12590000       0.68080000      -1.05090000       0.36272740      -0.26512024       0.25831172
C       -4.03280000       1.60690000       0.40460000       0.49990505      -0.13976601       0.20814809
C       -2.89780000       1.43700000       1.19700000      -0.44912681      -0.60489380      -0.11361331
Cl      -2.04350000       2.83000000       1.78620000       0.43655232      -0.21667665       0.32409948
C        1.66810000      -1.22510000       7.03090000      -0.55164313       0.44792202       0.15935121
C        2.26940000      -2.13840000       6.02500000       0.25599757      -0.09146848      -0.24344859
N        2.13780000      -1.15340000       8.32060000       0.71583247      -0.50555289      -0.04241668
C        3.33240000      -1.77130000       8.77760000       0.06858391      -0.21258712      -0.21070622
C        4.56330000      -1.40680000       8.21940000       0.25362024      -0.20061383      -0.04124901
C        5.73310000      -2.01530000       8.66650000       0.09115766      -0.67074955       0.69241863
C        5.69060000      -2.97920000       9.67990000      -0.59946370       0.35650629      -0.28730330
Cl       7.16730000      -3.70920000      10.22510000      -0.05005652      -0.30143592       0.32811445
C        4.45390000      -3.34170000      10.24070000       0.23423249       0.62109226      -0.56192863
Cl       4.35550000      -4.53920000      11.49410000       0.36395031      -0.17812717       0.11346284
C        3.27880000      -2.74280000       9.78030000       0.52657294       0.05677681      -0.10204635
H        0.89400000       0.71770000      10.90270000      -0.11807669       0.23341513      -0.01765075
H        2.62440000       0.38180000      10.64420000       0.01196919       0.22330853       0.00463452
H        1.54420000      -0.90940000      11.19890000      -0.18384406      -0.11416483       0.14180872
H       -0.55150000       0.70810000       8.60810000       0.32501778      -0.07645125       0.07347796
H       -1.44560000      -0.06450000       6.18710000       0.24275038      -0.12898362       0.04134895
Au       2.30350000       0.10360000      -0.25990000      -0.84325558      -0.17100658       1.42475319
H       -2.76640000      -1.95720000       1.31170000       0.02890922       0.41195843       0.09901424
H       -4.81400000      -1.68200000      -0.11250000       0.09241170       0.21083635       0.12166171
H       -4.38470000       2.60710000       0.15560000      -0.64163160       0.32217360      -0.37226021
H        3.04320000      -1.62630000       5.43240000       0.05947625      -0.16067584       0.01033759
H        1.49870000      -2.45860000       5.31010000      -0.32088196      -0.43901879       0.10003325
H        2.70360000      -3.02840000       6.50440000      -0.14494166      -0.35791433       0.01920852
H        4.59620000      -0.64400000       7.44030000       0.05248780       0.01470043       0.21413162
H        6.69960000      -1.74210000       8.24130000      -0.19968040       0.45602402      -0.42154783
H        2.32140000      -3.04840000      10.20110000      -0.50426000      -0.01106030      -0.12065126
37
Properties=species:S:1:pos:R:3:MACE_forces:R:3 Energy=2.122016571456058 MACE_energy=2.098151206970215 pbc="F F F"
F       -4.71450000       2.34050000      -0.05670000       0.02749821      -0.27658328       0.00665222
C       -4.15420000       1.18300000       0.31250000      -0.02618142      -0.01127297       0.04771713
C       -4.71530000      -0.01490000      -0.12610000       0.04562661       0.19323382      -0.04511120
C       -4.12610000      -1.21920000       0.26540000      -0.09712922       0.12881692      -0.01990996
C       -2.99310000      -1.22220000       1.08070000       0.18470284      -0.18834174      -0.06086428
C       -2.44870000      -0.00510000       1.49750000      -1.08712924      -0.08227216       0.52767497
C       -3.02510000       1.21080000       1.12450000      -0.11485098      -0.21243641      -0.13352604
N       -1.27390000       0.00140000       2.33150000       2.31911230       0.15463194       0.53510666
C       -0.00000000       0.00000000       1.76800000       0.98411334      -0.08416528       0.22852683
S        0.00000000       0.00000000       0.00000000      -0.10923174      -0.02088616      -0.59234619
N        1.09950000       0.00000000       2.44220000      -1.13751125       0.02165451      -1.33467722
C        1.09590000       0.00140000       3.83520000      -0.00134042       0.00019321       0.58193135
O        2.13940000      -0.00240000       4.45760000       0.62859219      -0.00362362      -0.74977630
C       -0.24110000       0.00890000       4.52920000      -0.33219999      -0.01632673       0.40731758
C       -0.19510000       0.01500000       5.90150000      -0.03114350      -0.01310203      -0.56636405
C       -1.17940000       0.02360000       6.93880000      -0.48311135      -0.00502071       0.50130856
N       -0.82270000       0.02840000       8.22820000       0.07497638      -0.00178671      -0.34309316
C       -1.99020000       0.03680000       8.92890000       0.77137190      -0.00252898       0.07353942
C       -2.21520000       0.04460000      10.32290000      -0.24573816       0.00102121       0.07804207
C       -3.52660000       0.05260000      10.76810000      -0.23893835       0.00043624      -0.11317173
C       -4.61930000       0.05310000       9.85990000       0.24009195      -0.00038954       0.16137154
C       -4.43260000       0.04550000       8.48410000      -0.07938319       0.00171648       0.34329620
C       -3.10460000       0.03730000       8.02720000      -0.70868367      -0.00216293      -0.72196537
N       -2.55130000       0.02870000       6.78180000       1.04038763      -0.03001968       0.11348200
C       -1.46710000       0.00800000       3.72430000       0.06951442       0.06618078       0.41585821
O       -2.62010000       0.01210000       4.14340000      -0.80937052      -0.02484316      -0.95940590
H       -5.60040000       0.01270000      -0.76360000       0.15402818       0.03648518       0.13573268
H       -4.55660000      -2.16480000      -0.07000000       0.06386518      -0.12405824       0.09798937
H       -2.52280000      -2.15600000       1.39070000      -0.05034661       0.61291766      -0.14317919
H       -2.60400000       2.16150000       1.45130000       0.24062166      -0.10753226       0.00783449
Au       2.30830000       0.01200000      -0.26060000      -0.85938257      -0.01283848       1.49933624
H        0.82140000       0.01320000       6.30570000      -0.26605183       0.00248694      -0.02149650
H       -1.36890000       0.04440000      11.01180000       0.35924870       0.00046648       0.38931203
H       -3.73430000       0.05890000      11.84040000      -0.19989322       0.00082374      -0.02607311
H       -5.63620000       0.05970000      10.25930000       0.04000225       0.00072547       0.16515118
H       -5.27680000       0.04610000       7.79230000      -0.44565159       0.00184208      -0.13436417
H       -2.97590000       0.02540000       5.84710000       0.07951486      -0.00344150      -0.35185611
20
Properties=species:S:1:pos:R:3:MACE_forces:R:3 Energy=0.2504669647107284 MACE_energy=1.103682041168213 pbc="F F F"
F        4.24940000      -0.80350000       5.25610000      -0.28538850      -0.00963737      -0.21412462
C        3.45010000      -0.62010000       4.20480000      -0.21839200      -0.17553708       0.03388472
O        2.35020000       0.06730000       4.64950000       0.00119820       0.14759833      -0.37870494
C        1.21840000       0.06610000       3.87680000      -0.09352830      -0.14056392       0.42505315
C        1.21930000       0.00000000       2.48670000      -0.84833974      -0.18898895      -1.05100656
C       -0.00000000       0.00000000       1.78250000      -0.10512529      -0.14405182       2.87025595
S        0.00000000       0.00000000       0.00000000       0.34948799      -0.57083982      -2.39017391
C       -1.20100000       0.09960000       2.48610000       0.64722723      -0.19834295      -0.50966203
C       -1.21800000       0.19100000       3.88830000      -0.22319032      -0.09922682      -0.31259048
C        0.00080000       0.16550000       4.57840000       0.52319449       0.07051093      -0.13489997
F        0.06600000       0.22950000       5.89970000       0.96935862      -0.11141086       0.65222549
C       -2.56400000       0.29570000       4.53440000      -0.33543813      -0.12125409       0.04289856
O       -3.59780000       0.28490000       3.90890000       0.12081797       0.05754669       0.44909561
O       -2.52630000       0.40530000       5.87060000       0.26475668      -0.04752153      -0.76070666
F        4.13110000       0.11050000       3.28760000       0.32843828      -0.08101131       0.20383175
H        3.18160000      -1.59040000       3.74730000       0.42321962       0.10798468       0.40910015
H        2.15930000      -0.03280000       1.93730000      -0.03780062       0.42161417       0.14182696
Au       0.08030000      -2.24510000      -0.50910000      -0.17581250       0.77629334       0.44077983
H       -2.15630000       0.10980000       1.96170000      -0.42167842       0.18132986      -0.21973540
H       -3.45120000       0.46790000       6.16510000      -0.88300520       0.12550843       0.30265224
30
Properties=species:S:1:pos:R:3:MACE_forces:R:3 Energy=1.0883750026175885 MACE_energy=1.9508198499679565 pbc="F F F"
C        7.17580000      -1.46400000       6.86860000       0.55709463       0.02427536       0.08407456
C        5.68340000      -1.38340000       6.69690000       0.79831421       0.65258837      -0.08291055
C        4.85230000      -2.36930000       7.05380000      -0.99593049      -1.13105464       0.29542533
C        5.20050000      -0.09200000       6.06800000      -0.81784022       0.18761069       0.00254004
N        3.76660000       0.07290000       6.03560000       1.00909686       0.05569571      -1.40087008
C        3.04800000       0.02230000       4.88090000      -0.68965906       0.01600106      -0.31338689
O        3.58270000      -0.07710000       3.77730000      -0.34581128       0.03875789       0.87405658
C        1.55960000       0.09920000       4.99810000      -0.03160474       0.04671662       0.53146738
C        0.82940000       0.18920000       6.19140000      -0.08392619      -0.04454862      -0.21273009
C       -0.57290000       0.25290000       6.17610000       0.17540367       0.01091441      -0.02901688
F       -1.20360000       0.33680000       7.36030000      -0.02749525      -0.00863194      -0.17664783
C       -1.32770000       0.23300000       5.01050000       0.50823474       0.02355785       0.30324167
C       -0.62080000       0.14090000       3.80180000      -1.17325282       0.01404864      -0.48888820
N       -1.08100000       0.07880000       2.50630000       1.56041002      -0.09795050      -1.03829885
C        0.00000000      -0.00000000       1.75430000      -0.66104090      -0.33785999       3.61889696
S        0.00000000       0.00000000       0.00000000      -0.14559290      -0.39105922      -4.19902658
N        1.16420000      -0.00000000       2.49650000      -1.74026108      -0.29960901       0.79769063
C        0.80330000       0.07840000       3.81450000       1.83673000      -0.05098488      -0.19564477
H        7.48500000      -2.42500000       7.30280000      -0.05643028      -0.24588364       0.10572610
H        7.68940000      -1.34180000       5.89880000       0.29328081      -0.03799052      -0.01123601
H        7.54430000      -0.65390000       7.52230000       0.26818469      -0.05503226       0.06353914
H        3.77320000      -2.29150000       6.90280000      -0.11924876      -0.48694223       0.07946844
H        5.22990000      -3.29460000       7.49610000      -0.16943231      -0.21211581       0.07760131
H        5.54730000      -0.03790000       5.02390000       0.17091469       0.47089830      -0.40581906
H        5.66450000       0.76130000       6.59720000       0.06106725       0.55758822      -0.34193343
H        3.27740000       0.12010000       6.91900000      -0.91867977       0.32024270       0.60404348
H        1.31010000       0.21250000       7.17070000       0.08187062      -0.07251067       0.11940289
H       -2.41600000       0.28350000       5.04180000      -0.57151574       0.06849132       0.77030766
Au       0.92230000      -2.06520000      -0.46350000      -0.27687374       0.92866737       0.63726950
H        2.13050000      -0.04430000       2.18600000       1.50399315       0.05611960      -0.06834184
41
Properties=species:S:1:pos:R:3:MACE_forces:R:3 Energy=0.5316791766390302 MACE_energy=1.7275619506835938 pbc="F F F"
C        4.24640000       1.93080000       5.84240000      -0.03828909       1.16125345      -0.80039871
N        4.35370000       0.68370000       6.58990000      -0.89355159       0.81999528      -0.53497916
C        5.66090000       0.47770000       7.25500000       0.05788322      -2.06422210      -0.44197893
C        5.70500000       1.11600000       8.63840000       0.69918203       1.15710258       1.07805502
C        5.13870000       0.51750000       9.77560000      -0.26880121      -0.15563783       1.09566629
C        5.20400000       1.13650000      11.02520000       0.14911021       0.14351691      -0.32642025
C        5.84130000       2.37310000      11.16690000      -0.16109306      -0.31605998       0.20281543
C        6.41020000       2.99270000      10.05350000      -0.07135028      -0.32404312      -0.39223981
C        6.32820000       2.35550000       8.81890000      -0.31808272       0.06595474       1.06836057
F        6.87770000       2.97590000       7.74920000       1.58602202       1.61460817      -0.89938784
C        6.13720000      -0.97620000       7.22880000      -0.00342706      -0.53900123       0.47543547
C        3.27820000      -0.10460000       6.90260000       0.97550356      -0.06401746       0.10553834
O        3.28130000      -0.91550000       7.82120000      -0.23416990       0.57747930      -1.35452843
C        2.04870000       0.00200000       6.03480000      -1.22516680      -0.48083216      -0.08920425
C        0.78930000      -0.03460000       6.67070000       1.26375163      -0.05865273      -0.31060818
C       -0.37020000      -0.02210000       5.91210000      -0.02062352       0.09882002      -0.48255685
C       -0.29550000      -0.00430000       4.50950000      -1.25844991       0.00288326       0.51884061
C        0.96210000       0.00040000       3.85640000       0.55598998       0.19771399       0.01928443
C        2.13000000       0.00940000       4.64540000      -0.73767841      -0.39006704       0.15034097
N        1.08420000      -0.00000000       2.47820000      -1.90765715      -0.02308892      -1.78473032
C        0.00000000      -0.00000000       1.77070000       0.17601979      -0.08574866       3.26162839
N       -1.26040000       0.00160000       2.32240000       1.20600593       0.03861829       0.14933583
C       -1.52330000      -0.00000000       3.70260000       1.19362187      -0.08794568       0.56137723
O       -2.66550000       0.00160000       4.11620000       0.21485163       0.05311213      -0.41583681
S        0.00000000       0.00000000       0.00000000       0.11726958       0.01405582      -2.08175349
H        3.19870000       2.18600000       5.65410000      -0.00896809       0.02696359       0.10390218
H        4.69900000       2.74870000       6.42430000      -0.86506009      -0.39572480      -0.26729810
H        4.77370000       1.87330000       4.87440000      -0.39280576      -0.53612256       0.46393427
H        6.36400000       1.04510000       6.63150000      -0.06017308      -0.08578511       0.50969404
H        4.62040000      -0.43320000       9.65570000       0.01102792       0.40963748       0.92298341
H        4.75250000       0.65100000      11.89300000       0.12970825       0.19408406      -0.09290413
H        5.89540000       2.85930000      12.14370000      -0.11590697      -0.27046621      -0.03151723
H        6.91490000       3.95800000      10.12050000      -0.16532379      -0.44055417      -0.04719630
H        6.11280000      -1.35670000       6.19580000       0.07987212       0.05806088      -0.30785075
H        5.51460000      -1.62990000       7.84850000       0.41704041      -0.54422045      -0.31367314
H        7.17570000      -1.02030000       7.58960000       0.39513150       0.02494045      -0.26687956
H        0.75190000      -0.08020000       7.75990000      -0.65166134       0.24027388      -0.32524180
H       -1.35870000      -0.03440000       6.37480000      -0.16465759       0.00358164       0.04511275
H        3.09270000       0.00830000       4.13320000       1.23384750      -0.08104391       0.13951015
H       -2.08200000       0.00070000       1.72360000      -0.17696789      -0.00033658      -0.72607970
Au       2.28950000      -0.03250000      -0.32670000      -0.72197390       0.04091504       1.42144895
21
Properties=species:S:1:pos:R:3:MACE_forces:R:3 Energy=3.3805530797753094 MACE_energy=3.0425491333007812 pbc="F F F"
F        3.25830000      -0.00160000       9.69690000      -0.23765978       0.00003564      -0.11143975
C        2.17470000      -0.00140000       8.90640000      -0.04092620       0.00002933      -0.11278696
C        0.90840000      -0.00170000       9.48710000       0.25792715      -0.00002820       0.17573136
C       -0.20680000      -0.00150000       8.64450000       0.22746837      -0.00009766       0.33547348
C       -0.06770000      -0.00100000       7.25700000      -0.13339879       0.00018284      -0.25221252
C        1.21860000      -0.00070000       6.67440000      -0.28361669      -0.00006915       0.20977594
C        1.51340000      -0.00030000       5.24400000       0.32959235      -0.00004139      -0.12959686
C        0.76410000      -0.00020000       4.10890000      -1.44116580      -0.00020595       1.34243345
S        1.59010000      -0.00000000       2.52990000       1.97566223       0.00050516      -1.41136312
C        0.00000000       0.00000000       1.73850000      -1.85383034      -0.00016911       2.35247207
S        0.00000000       0.00000000       0.00000000      -1.34832740      -0.00010070      -1.46072459
N       -1.04020000      -0.00010000       2.50360000       0.69073963       0.00014254      -2.21152973
C       -0.73010000      -0.00010000       3.86970000       2.06576109       0.00000586       0.36851910
O       -1.58170000      -0.00010000       4.73400000      -0.62469745      -0.00017308       0.22579472
C        2.34540000      -0.00090000       7.53000000       0.09607767      -0.00013025       0.37052640
H        0.81510000      -0.00210000      10.57450000       0.06954096       0.00008567      -0.20697212
H       -1.20800000      -0.00180000       9.08120000      -0.23724413      -0.00001321      -0.06156978
H       -0.94090000      -0.00090000       6.60940000      -0.07813709       0.00009469      -0.04532447
H        2.59340000      -0.00020000       5.05730000      -0.50414538      -0.00009724       0.27811995
Au      -2.30150000      -0.00010000      -0.29940000       0.79083735       0.00005528       0.26244634
H        3.35990000      -0.00070000       7.12720000       0.27954221      -0.00001107       0.08222660
43
Properties=species:S:1:pos:R:3:MACE_forces:R:3 Energy=0.36918266192797033 MACE_energy=-0.31706881523132324 pbc="F F F"
S        0.00000000       0.00000000       0.00000000      -0.63755798       0.01371013      -2.65509033
C        0.00000000       0.00000000       1.78180000      -0.56493825       0.00353111       0.83082920
N       -1.09480000      -0.00830000       2.46320000       0.05130525      -0.28264403      -0.43536365
C       -1.08690000       0.01450000       3.87100000      -0.10448807      -0.00511359       0.61304384
O       -2.12840000       0.03480000       4.50880000       0.50782526      -0.04165613      -0.78615469
C        0.22830000       0.04330000       4.50610000      -0.87018877      -0.10693035       0.08056247
C        0.32060000       0.20420000       5.99790000      -0.58008265      -0.43667465      -0.31250745
N        1.67370000       0.57610000       6.38800000       0.59012020       0.16145071      -0.64598578
C        2.63800000      -0.28460000       5.73680000      -1.05960357      -0.37745887      -0.77490473
N        2.62430000      -0.10480000       4.29080000       0.22681761      -0.14596687      -0.30996060
C        1.35920000       0.00410000       3.74530000      -0.33930451      -0.10441711      -1.09651601
N        1.26530000       0.00000000       2.35000000       0.46505326       0.39156187       2.39710808
C        2.45390000      -0.02840000       1.54650000       0.39553463       0.49815518       0.73679149
C        3.08570000      -1.24600000       1.27830000      -0.30669665      -0.23858367       0.23161571
C        4.24450000      -1.25640000       0.50170000       0.08886915       0.25584576      -0.11910883
C        4.77410000      -0.06580000      -0.00280000      -0.26087493       0.35199416       0.05459347
C        4.13280000       1.14330000       0.28070000       0.15870547      -0.32332247      -0.03419734
Cl       4.78590000       2.63590000      -0.34200000      -0.10171445      -0.19650067       0.02200431
C        2.97300000       1.17470000       1.05810000      -0.11017926      -0.54911590       0.35796982
C        1.85430000       0.79050000       7.81500000       0.49472392       0.12410962       0.43164971
C        2.00430000      -0.44370000       8.73580000      -0.44236115      -0.72684538       0.66075146
C        2.49260000       0.18410000      10.04290000       0.09242389       0.02972778      -0.09868577
C        3.53160000       1.23060000       9.58280000      -0.45069060       0.10263795      -0.08481126
C        3.07550000       1.67770000       8.17000000       0.26787549       0.50989681       0.38739493
Au      -2.31360000      -0.00580000      -0.21150000       0.82604188       0.02197001       1.41777182
H       -0.03380000      -0.72630000       6.49810000       0.35759705      -0.20124577      -0.38201123
H       -0.38410000       0.99400000       6.30420000       0.51773101       0.30363506      -0.07790425
H        3.65080000      -0.06900000       6.10120000      -0.22735053       0.30568957       0.35606706
H        2.43610000      -1.36040000       5.93160000      -0.50961059      -0.06546870       0.01396807
H        3.30820000       0.55300000       3.92510000       0.83595812       0.66382551      -0.55436271
H        2.66070000      -2.16750000       1.67690000       0.22092794       0.17141326      -0.31530398
H        4.74360000      -2.20240000       0.28200000      -0.03471658      -0.08449732       0.12402830
H        5.67780000      -0.06670000      -0.61350000      -0.02754789      -0.12190939       0.12497143
H        2.46740000       2.11710000       1.26830000      -0.14283243       0.05365008       0.02301216
H        0.94910000       1.32420000       8.14930000       0.34600574      -0.16749935      -0.50264537
H        2.77570000      -1.12670000       8.33860000       0.00837639       0.51244140      -0.06374544
H        1.07320000      -1.02070000       8.84140000       0.28031361       0.27532551      -0.01238118
H        1.64730000       0.68530000      10.54490000       0.17722753      -0.15724196       0.19565552
H        2.90430000      -0.54590000      10.75620000       0.02944167       0.16445154       0.06883729
H        3.61450000       2.07100000      10.28800000       0.28179878      -0.15604392       0.12377305
H        4.52870000       0.76440000       9.53040000      -0.09123792      -0.00583537       0.06114054
H        2.80400000       2.74230000       8.12330000      -0.06636152      -0.23684144      -0.21515936
H        3.87990000       1.53440000       7.43240000      -0.29233566      -0.18321013       0.16326028
22
Properties=species:S:1:pos:R:3:MACE_forces:R:3 Energy=0.3550844905847789 MACE_energy=-0.06661957502365112 pbc="F F F"
C       -0.45210000       0.80650000       6.72440000       0.24316120      -0.12721732      -0.28026125
O        0.03630000      -0.29550000       5.95050000      -0.26565969       0.43338001       0.18597262
C        0.01110000      -0.16430000       4.60400000       0.14055675       0.06199612       0.00709031
C       -1.19810000      -0.17340000       3.88390000      -0.22456518       0.32176384       0.20167634
O       -2.39160000      -0.23520000       4.57150000       0.58407021       1.34841132      -1.65197062
C       -2.71480000      -1.45570000       5.12800000      -0.24288818      -1.53035975       0.95276344
F       -3.62120000      -1.21560000       6.08140000       0.23359911      -0.16505580      -0.37098113
F       -3.28260000      -2.24710000       4.19270000       0.10604164       0.01579209       0.45260715
C       -1.20750000      -0.09730000       2.49580000       0.38101366       0.49911851      -0.71204913
C       -0.00000000      -0.00000000       1.78270000       0.14154613       0.23644069       2.90273118