36
Energy=1.6228946800223265
C 5.9399 -0.5475 -1.0023
C 4.7223 -0.4133 -0.125
C 4.0063 -1.5391 0.3057
C 2.8779 -1.4087 1.1159
C 2.4461 -0.1383 1.4975
C 3.1487 0.9978 1.0863
C 4.2754 0.8556 0.2816
N 1.2762 -0.0 2.3264
C 0.0 -0.0 1.7677
N -1.1003 -0.0025 2.4439
C -1.0921 0.0038 3.8356
O -2.0724 -0.3083 4.4771
C 0.2052 0.3821 4.4849
C 0.3701 0.7956 5.7706
C -0.5667 1.1771 6.7838
C -0.3307 1.3832 8.1394
C -1.5621 1.7771 8.7184
C -2.4457 1.8032 7.6654
O -1.8709 1.4517 6.5127
N -3.8366 2.1778 7.6404
O -4.3317 2.4293 8.732
O -4.3958 2.2219 6.5609
C 1.4646 0.2122 3.7053
O 2.581 0.271 4.1766
S 0.0 0.0 0.0
H 5.7853 -0.048 -1.9731
H 6.183 -1.6013 -1.1996
H 6.82 -0.0768 -0.5345
H 4.3379 -2.5357 0.0045
H 2.3239 -2.2881 1.4489
H 2.8035 1.985 1.3978
H 4.821 1.7467 -0.0397
H 1.4126 0.8773 6.0958
H 0.6262 1.2539 8.6404
H -1.7938 2.0201 9.7508
Au -2.3056 0.0167 -0.2728
25
Energy=-0.6630205444988313
F -4.3368 0.7854 1.2642
C -3.4893 0.693 2.2901
O -2.3624 0.0698 1.8173
C -1.1933 0.1312 2.5239
C -1.1547 0.2599 3.9117
C 0.0788 0.3016 4.5626
C 1.2697 0.1771 3.8459
C 1.2345 0.0 2.4502
C -0.0 0.0 1.7766
S 0.0 0.0 0.0
C 2.5148 -0.1621 1.6337
O 3.2171 0.795 1.4148
C 2.8493 -1.5685 1.2009
C 2.5843 0.2496 4.5908
F 2.4061 0.1196 5.9175
F 3.4265 -0.7344 4.2096
F 3.2161 1.4118 4.3875
F -4.082 -0.0566 3.2517
H -3.271 1.6927 2.7064
H -2.078 0.3071 4.488
H 0.1118 0.4114 5.6464
Au -1.3413 -1.8002 -0.5302
H 3.1927 -2.1207 2.0909
H 1.966 -2.0835 0.7987
H 3.654 -1.5426 0.4545
45
Energy=1.3300736360724796
C 5.7624 -2.5316 -0.8501
O 4.624 -2.4439 -0.0245
C 4.1455 -1.2207 0.308
C 4.7107 -0.006 -0.1086
C 4.1333 1.2028 0.2974
C 3.0022 1.2219 1.1078
C 2.4431 0.003 1.51
C 3.0048 -1.2092 1.1255
N 1.2645 -0.0 2.3374
C 0.0 -0.0 1.7738
S 0.0 0.0 0.0
N -1.1059 0.0006 2.4411
C -1.1059 0.0016 3.8354
O -2.1592 0.0007 4.4493
C 0.2222 0.0047 4.5311
C 0.172 0.0067 5.9096
C 1.1206 0.0095 6.9677
C 2.5241 0.0115 6.9636
N 2.9983 0.0132 8.2357
C 4.3933 0.0151 8.6187
C 1.9325 0.0124 9.135
C 1.9426 0.0135 10.5326
C 0.7064 0.0122 11.1786
C -0.4966 0.0098 10.4454
C -0.4945 0.0087 9.0511
C 0.7351 0.0101 8.3772
C 1.4511 0.0056 3.744
O 2.595 0.0105 4.173
H 5.5891 -2.0678 -1.8378
H 5.9666 -3.6012 -0.9894
H 6.6443 -2.0556 -0.3845
H 5.5946 0.0108 -0.7451
H 4.5811 2.1434 -0.031
H 2.5437 2.1586 1.426
H 2.5668 -2.1552 1.4439
Au -2.3096 0.0017 -0.2459
H -0.8686 0.0054 6.2542
H 3.1793 0.0118 6.0982
H 5.0155 0.0147 7.7151
H 4.6312 0.9102 9.2156
H 4.633 -0.878 9.2176
H 2.8753 0.0153 11.0996
H 0.671 0.0129 12.2703
H -1.4482 0.0087 10.9817
H -1.4354 0.0068 8.4965
27
Energy=-0.08904500053382276
F 2.0705 3.8462 1.7924
C 1.6344 3.0801 2.8373
O 2.6579 2.2843 3.2881
C 3.1932 1.3521 2.4176
C 4.4823 1.5658 1.9304
C 5.0723 0.6229 1.0878
C 4.3731 -0.5349 0.7336
C 3.0864 -0.7512 1.2249
C 2.4861 0.1878 2.0698
N 1.1584 0.0 2.5296
C 0.7445 -0.0241 3.8482
C -0.637 -0.068 3.8189
N -1.072 -0.0351 2.5172
C 0.0 0.0 1.7506
S 0.0 0.0 0.0
C -1.5902 -0.142 4.9668
F 1.3108 3.8951 3.8402
H 0.7463 2.5224 2.4981
H 4.9993 2.4807 2.2228
H 6.0807 0.7949 0.7058
H 4.8311 -1.2738 0.0733
H 2.5207 -1.6417 0.9514
H 1.4566 -0.0018 4.6684
Au 0.9922 2.0427 -0.4668
H -2.3177 0.6837 4.9201
H -2.1659 -1.0814 4.9372
H -1.0609 -0.0896 5.929
32
Energy=-0.4995292591473145
C -4.7183 2.5282 0.2188
O -4.1341 1.2979 0.5508
C -2.9679 1.418 1.3197
C -2.4825 0.0056 1.6236
N -1.2349 0.0063 2.3908
C -0.0 -0.0 1.7787
S 0.0 0.0 0.0
N 1.1316 -0.0 2.4345
C 1.0516 0.0117 3.7819
C -0.1322 0.0427 4.5246
C -1.3898 0.0571 3.8178
O -2.5047 0.1068 4.3096
C 0.1145 0.078 5.9315
C -0.722 0.0599 7.181
C 0.3229 0.3909 8.2858
C 1.7247 0.0306 7.7071
C 1.4487 0.0689 6.2315
S 2.4716 0.015 4.817
H -5.6197 2.3236 -0.3767
H -4.0343 3.1627 -0.381
H -5.012 3.1031 1.1203
H -3.1646 1.9497 2.2719
H -2.1833 1.9795 0.7717
H -2.3352 -0.5509 0.6882
H -3.238 -0.5093 2.2286
Au 2.2905 -0.0498 -0.3256
H -1.5574 0.7748 7.1495
H -1.1741 -0.9379 7.3236
H 0.118 -0.127 9.2341
H 0.2945 1.4724 8.4916
H 2.0528 -0.9777 8.0209
H 2.5069 0.7348 8.033
37
Energy=-0.648966826026754
C 6.0132 -0.0132 -0.4775
N 4.6813 -0.0104 0.0858
C 4.3937 -1.2132 0.8495
C 2.9279 -1.2656 1.2749
C 2.5585 -0.0022 2.0578
C 2.9299 1.2554 1.2665
C 4.3956 1.1977 0.8417
N 1.1692 0.0 2.5109
C -0.0 -0.0 1.7655
S 0.0 0.0 0.0
N -1.0858 -0.0004 2.5128
C -0.6438 -0.001 3.8227
C 0.7722 -0.0009 3.8475
C 1.4835 -0.0019 5.0502
C 0.7401 -0.003 6.2301
C -0.676 -0.003 6.2358
C -1.369 -0.002 5.0227
C -1.415 -0.0046 7.5522
H 6.1581 0.8752 -1.112
H 6.8168 -0.0113 0.2959
H 6.1568 -0.906 -1.1061
H 4.6307 -2.091 0.2277
H 5.0455 -1.2819 1.7557
H 2.2928 -1.3428 0.379
H 2.7411 -2.156 1.8954
H 3.1587 0.0006 2.9808
H 2.7443 2.1503 1.8809
H 2.2953 1.3278 0.3699
H 4.6342 2.0712 0.2143
H 5.0473 1.2712 1.7477
Au -2.3079 -0.0076 -0.2289
H 2.5748 -0.002 5.0809
H 1.2695 -0.0038 7.1868
H -2.4608 -0.0021 4.9962
H -1.1606 -0.8927 8.1549
H -1.1571 0.8797 8.159
H -2.5044 -0.0021 7.402
21
Energy=0.9754320225738522
Br 3.1192 5.6611 0.1653
C 3.0913 4.0604 1.15
C 3.464 3.8896 2.4608
C 3.3201 2.5338 2.8788
C 2.8513 1.7027 1.8888
S 2.5548 2.583 0.4135
C 2.5224 0.243 2.0094
N 1.1677 -0.0 2.4929
C 0.7397 -0.0099 3.8057
N 1.6253 0.0842 4.8739
N -0.5653 -0.0376 3.8612
N -1.0364 -0.0206 2.5649
C -0.0 -0.0 1.7576
S 0.0 0.0 0.0
H 3.8248 4.7013 3.0918
H 3.5299 2.1766 3.8878
H 3.2225 -0.2237 2.7153
H 2.6334 -0.2773 1.0471
H 1.1031 0.2059 5.7392
H 2.2354 -0.7284 4.9656
Au -2.3092 -0.1491 -0.193
39
Energy=2.1365710758237917
C 6.4594 0.919 -1.3858
O 5.79 -0.2324 -0.9187
C 4.6916 -0.0876 -0.1264
C 4.1508 1.1369 0.266
C 3.0172 1.1686 1.0829
C 2.4342 -0.0265 1.4929
C 2.9682 -1.2634 1.1158
C 4.0995 -1.3056 0.2997
N 4.7143 -2.4816 -0.1442
C 4.343 -3.7822 0.1068
O 3.3768 -4.0954 0.7772
C 5.2571 -4.8244 -0.5158
N 1.2678 -0.0 2.3361
C 0.0 -0.0 1.778
S 0.0 0.0 0.0
N -1.0952 0.0056 2.4668
C -1.0103 0.0092 3.8439
C 0.2338 0.0154 4.5186
C 1.4773 0.0157 3.7407
O 2.6033 0.0286 4.1958
C 0.286 0.0209 5.9228
C -0.889 0.0197 6.6615
C -2.1307 0.0135 5.9969
C -2.1956 0.0085 4.6108
H 7.3036 0.5669 -1.9926
H 6.8439 1.5295 -0.5503
H 5.7993 1.5438 -2.0124
H 4.6051 2.0724 -0.0574
H 2.5865 2.1196 1.3975
H 2.5128 -2.194 1.4426
H 5.533 -2.3217 -0.7195
H 6.0121 -4.4075 -1.1978
H 4.637 -5.5525 -1.0584
H 5.7676 -5.3709 0.2923
Au -2.2914 -0.026 -0.3235
H 1.2678 0.0248 6.3999
H -0.8534 0.0229 7.753
H -3.0553 0.0121 6.5798
H -3.1503 0.0033 4.0823
42
Energy=1.3548685135794638
O -2.167 -0.0119 4.482
C -1.0023 -0.0068 3.8308
N -1.1015 -0.0002 2.4728
C 0.0 0.0 1.7728
S 0.0 0.0 0.0
N 1.2375 0.0 2.3458
C 2.4237 0.0065 1.5349
C 2.9883 1.2232 1.1414
C 4.1402 1.2338 0.3573
C 4.7126 0.0177 -0.0121
F 5.8179 0.0231 -0.7657
C 4.1685 -1.2037 0.3816
C 3.0163 -1.2043 1.1652
C 1.4187 -0.0029 3.7816
O 2.555 0.0103 4.2233
C 0.1889 -0.0313 4.527
C 0.2575 -0.0064 6.0368
N -0.184 1.3017 6.5232
C -0.3581 1.3563 7.9642
C -1.5494 0.4788 8.3327
C -1.3812 -0.9162 7.7768
C -2.0635 -2.0025 8.3452
C -1.9159 -3.2941 7.8423
C -1.064 -3.5165 6.7555
C -0.3807 -2.4443 6.1852
C -0.5351 -1.1411 6.6775
H -2.865 -0.032 3.8088
Au -2.2787 -0.0095 -0.3883
H 2.5184 2.1578 1.4509
H 4.6033 2.1661 0.0311
H 4.6532 -2.1314 0.0742
H 2.5681 -2.1431 1.4935
H 1.3227 -0.19 6.2885
H 0.4752 2.0079 6.2046
H -0.5458 2.4006 8.2592
H 0.5394 1.0122 8.528
H -1.6845 0.437 9.4258
H -2.4604 0.9331 7.9051
H -2.7205 -1.8237 9.2015
H -2.4562 -4.1264 8.3001
H -0.9315 -4.5249 6.3556
H 0.286 -2.6137 5.3358
33
Energy=2.301761841633055
O -3.7331 -0.1684 6.4205
C -2.5528 -0.1892 7.0905
C -2.5147 -0.2336 8.4875
C -1.2919 -0.254 9.1584
C -0.097 -0.2303 8.4323
C -0.1276 -0.1864 7.0413
C -1.3483 -0.1642 6.3288
C -1.4782 -0.1176 4.8866
C -0.5821 -0.0795 3.8555
N -1.0397 -0.0417 2.5293
C 0.0 0.0 1.7555
S 0.0 0.0 0.0
N 1.2128 -0.0 2.4533
C 0.9131 -0.0687 3.8332
O 1.7539 -0.106 4.7095
C 2.5272 0.067 1.9191
C 3.492 -0.8588 2.3351
C 4.7848 -0.7876 1.8158
C 5.1179 0.1939 0.8772
C 4.1536 1.1189 0.4695
C 2.8626 1.0684 0.9985
H -4.4612 -0.1876 7.0548
H -3.4545 -0.2519 9.0483
H -1.2771 -0.2886 10.2504
H 0.8631 -0.2462 8.9519
H 0.801 -0.1683 6.4727
H -2.5109 -0.1087 4.5323
Au -2.2963 -0.183 -0.2583
H 3.2253 -1.6211 3.0666
H 5.5361 -1.5101 2.1427
H 6.1297 0.2405 0.4683
H 4.4081 1.8955 -0.2553
H 2.1139 1.8048 0.7035
31
Energy=0.9904368183816652
O 2.5364 1.2172 4.9682
C 1.7268 0.0503 4.9721
C 0.7733 -0.0104 3.8241
C -0.6175 -0.015 3.7979
N -1.0769 -0.0094 2.5212
C 0.0 0.0 1.745
N 1.1612 0.0 2.5035
C 2.5343 0.0234 2.018
C 3.2277 -1.3475 2.012
C 2.5443 -2.3849 1.0955
C 3.134 -2.3468 -0.3087
O 4.5179 -2.6742 -0.3234
C 5.2296 -2.3959 0.8681
C 4.7007 -1.1562 1.5809
S 0.0 0.0 0.0
H 1.9467 1.9834 4.9376
H 2.4321 -0.7955 4.9498
H 1.1413 -0.0455 5.9055
H -1.2901 -0.0247 4.656
H 3.0944 0.7176 2.6596
H 2.5085 0.433 0.9989
H 3.2104 -1.7384 3.0425
H 1.4574 -2.2223 1.0508
H 2.6877 -3.3954 1.5098
H 2.6261 -3.0711 -0.965
H 2.9718 -1.3448 -0.7531
H 6.2843 -2.2605 0.5809
H 5.1926 -3.2645 1.5584
H 5.3355 -0.9111 2.4472
H 4.7777 -0.3044 0.8828
Au 0.0 2.259 -0.5144
47
Energy=3.201918685986891
S 0.0 0.0 0.0
C -0.0 -0.0 1.7507
N -1.1114 -0.0076 2.3901
C -0.9431 -0.0315 3.7894
O -1.8613 -0.0094 4.5757
C 0.5198 -0.0415 4.1734
C 1.0695 0.0026 5.4132
C 0.4232 -0.0867 6.7106
C -0.5255 -1.0067 7.0353
O -1.1839 -0.9844 8.229
C -1.0128 0.0633 9.0969
C 0.0061 1.0023 8.9205
C 0.976 0.8662 7.766
C 2.3591 0.4159 8.2282
C 3.4833 1.2246 8.0271
C 4.7509 0.8029 8.4439
C 4.9041 -0.4361 9.0683
C 3.7847 -1.2517 9.2729
C 2.5236 -0.8293 8.8538
C 0.1155 2.0392 9.8555
C -0.7615 2.1324 10.9357
C -1.7707 1.1745 11.0955
C -1.9005 0.1375 10.1746
C -0.9459 -2.1624 6.2231
C -2.3067 -2.4978 6.1361
C -2.7165 -3.5771 5.3546
C -1.7738 -4.3381 4.658
C -0.4143 -4.0243 4.7589
C -0.0023 -2.9462 5.5405
S 1.5075 -0.0 2.7014
Au 2.2501 -0.0065 -0.5082
H 2.1508 0.1883 5.4654
H 1.0955 1.8618 7.309
H 3.3647 2.1963 7.5393
H 5.6192 1.4458 8.2795
H 5.8922 -0.7681 9.3957
H 3.8975 -2.2223 9.762
H 1.6532 -1.4706 9.0131
H 0.9134 2.7761 9.7313
H -0.659 2.9481 11.6544
H -2.4615 1.2384 11.9391
H -2.6787 -0.6219 10.266
H -3.039 -1.8869 6.6638
H -3.7791 -3.8193 5.2796
H -2.0967 -5.1806 4.0417
H 0.3286 -4.6288 4.2333
H 1.0587 -2.7096 5.6313
28
Energy=0.3032767142246105
C 0.887 3.9339 6.1662
O 0.3335 2.6879 5.7474
C 0.3674 1.694 6.649
O 0.7709 1.8241 7.776
C -0.2091 0.3995 6.0885
C -0.1391 0.2529 4.5929
C -1.3032 0.2312 3.8171
C -1.2392 0.1056 2.4341
C 0.0 0.0 1.7838
C 1.2068 0.0 2.5291
C 1.0909 0.1399 3.9214
Cl 2.5542 0.2082 4.8999
C 2.5544 -0.0997 1.861
C 3.1343 1.2772 1.5102
S 0.0 0.0 0.0
H 0.3656 4.3155 7.0567
H 0.7618 4.6232 5.3225
H 1.954 3.8169 6.4089
H -1.26 0.3534 6.4164
H 0.3228 -0.4146 6.6018
H -2.2734 0.3205 4.3115
H -2.1504 0.0937 1.8347
H 3.247 -0.6316 2.5288
H 2.4541 -0.6968 0.9445
H 2.4708 1.8083 0.8109
H 4.1216 1.1732 1.0335
H 3.2533 1.8951 2.4133
Au 0.178 -2.2362 -0.5345
27
Energy=-0.44284950718134264
S 0.0 0.0 0.0
C -0.0 0.0 1.832
C 1.3373 -0.0 2.5835
O 1.3463 -0.2285 3.7807
N 2.4318 0.2828 1.8235
C 3.7766 0.3131 2.2091
C 4.2282 0.2061 3.5267
C 5.5957 0.245 3.8459
C 6.057 0.1286 5.2734
C 6.4996 0.3969 2.7886
C 6.0808 0.5025 1.4567
C 4.7204 0.4556 1.1637
O 4.1916 0.5326 -0.0897
C 5.054 0.7265 -1.1885
Cl 8.2224 0.4581 3.1135
Au 1.0279 -1.9945 -0.5074
H -0.5287 0.9326 2.0976
H -0.5968 -0.8264 2.2395
H 2.2626 0.4507 0.8329
H 3.4875 0.0844 4.3141
H 6.7256 -0.7373 5.4067
H 6.6317 1.0175 5.5801
H 5.2009 0.0155 5.9526
H 6.8283 0.6142 0.6741
H 5.6224 1.6685 -1.0946
H 4.4173 0.7757 -2.0812
H 5.7662 -0.1105 -1.2971
19
Energy=3.135840097138958
S 0.0 0.0 0.0
C -0.0 -0.0 1.7679
C -1.2201 0.0767 2.4604
C -1.2628 0.1724 3.8472
C -0.0452 0.1676 4.5379
C 1.1835 0.0885 3.8952
C 1.2321 -0.0 2.4898
N 2.4221 -0.134 1.831
S -0.0594 0.244 6.3202
O 1.2117 0.7754 6.78
O -1.346 0.7755 6.7629
O -0.0378 -1.3488 6.7244
Au 0.7292 -2.1471 -0.4944
H -2.1442 0.0713 1.8795
H -2.2045 0.2634 4.3881
H 2.1029 0.1083 4.4828
H 3.2767 0.0686 2.3337
H 2.4148 0.0704 0.8362
H -0.9577 -1.6231 6.8784
25
Energy=0.3049669690654925
C -7.4715 1.1821 6.9523
C -6.3812 1.2244 6.4264
C -5.0791 1.242 5.7671
C -4.9062 0.0727 4.7746
N -3.6361 0.1091 4.0789
C -2.482 -0.2835 4.6972
O -2.4704 -0.6969 5.8477
C -1.2199 -0.1756 3.884
C -0.0013 -0.1912 4.5798
C 1.2057 -0.099 3.8866
C 1.212 -0.0 2.4937
C 0.0 -0.0 1.7838
C -1.2113 -0.0952 2.4868
S 0.0 0.0 0.0
H -8.4332 1.1504 7.4281
H -4.2753 1.1742 6.5183
H -4.9441 2.1993 5.2336
H -4.97 -0.8742 5.3291
H -5.7156 0.0853 4.0298
H -3.5766 0.6119 3.2032
H -0.0317 -0.2808 5.6668
H 2.1512 -0.1063 4.4338
H 2.1511 0.0726 1.9421
H -2.1378 -0.1313 1.911
Au -0.1443 2.2402 -0.5148
25
Energy=-0.7248638975309815
C 3.0955 1.1972 1.3125
C 2.5503 -0.0843 1.8818
O 3.1125 -1.1525 1.7981
C 1.1874 -0.0 2.5535
C -0.0 0.0 1.7866
S 0.0 0.0 0.0
C -1.2431 0.041 2.4352
C -1.3195 0.0755 3.8251
C -0.1562 0.0497 4.5956
C 1.0859 0.0069 3.9459
O 2.2237 -0.0944 4.7371
C 3.0262 0.9756 4.9757
F 3.4286 0.9412 6.2355
F 4.1174 0.9378 4.1949
F 2.4067 2.1382 4.7397
C -0.2325 0.0288 6.1052
F -1.5025 0.1395 6.5293
F 0.458 1.0466 6.6508
F 0.2612 -1.1091 6.6118
H 4.1211 1.0394 0.9546
H 3.0647 2.0025 2.0606
H 2.4453 1.4984 0.4749
Au 1.0713 -1.9943 -0.4678
H -2.1528 0.0263 1.8335
H -2.2891 0.1037 4.3221
30
Energy=4.666249687393914
O 4.5688 0.1768 14.0482
N 3.4352 -0.2675 13.9698
O 2.8126 -0.7727 14.8899
C 2.7606 -0.1892 12.6608
C 1.4681 -0.6954 12.5261
C 0.8607 -0.6204 11.2817
C 1.5014 -0.0429 10.1599
C 0.7541 -0.0123 8.9092
C -0.6116 -0.0052 8.671
C -0.7858 0.0034 7.2677
C 0.4872 -0.0045 6.7116
C 1.08 -0.0035 5.4096
C 0.522 -0.0011 4.1677
S 1.5089 -0.0 2.6987
C 0.0 -0.0 1.7473
S 0.0 0.0 0.0
N -1.1106 -0.0004 2.3919
C -0.9361 0.0001 3.7847
O -1.8515 0.0014 4.5795
O 1.4099 -0.0146 7.7296
C 2.808 0.4729 10.3493
Br 3.7802 1.3685 8.9791
C 3.4357 0.3929 11.5927
H 0.9737 -1.1476 13.3842
H -0.1355 -1.0439 11.1495
H -1.3957 0.019 9.4236
H -1.7062 0.0206 6.6955
H 2.1733 -0.0045 5.4644
Au 2.2488 0.0063 -0.5147
H 4.4377 0.7892 11.7459
29
Energy=3.356258721973315
C 0.7642 -0.0088 11.9101
N -0.2908 -0.0062 10.9178
C -1.6768 -0.0052 11.3416
C 0.021 -0.0049 9.5807
C 1.3696 -0.0059 9.1353
C 1.6646 -0.0046 7.7832
C 0.6608 -0.0025 6.7836
C 1.1097 -0.0016 5.4082
C 0.495 -0.0006 4.1881
S 1.4915 0.0 2.7079
C 0.0 0.0 1.7538
S 0.0 0.0 0.0
N -1.1155 -0.0002 2.3894
C -0.9551 -0.0003 3.7883
O -1.8989 -0.0001 4.553
C -0.6817 -0.0016 7.2335
C -0.9902 -0.0027 8.5833
H 1.41 -0.9015 11.8255
H 1.4131 0.8818 11.8267
H 0.3205 -0.0087 12.9132
H -1.7214 -0.0064 12.4376
H -2.2187 0.8873 10.9807
H -2.2206 -0.8955 10.9786
H 2.1895 -0.0075 9.8513
H 2.7148 -0.0054 7.478
H 2.2046 -0.002 5.3444
Au 2.2501 0.0029 -0.5045
H -1.4805 0.0001 6.4946
H -2.0409 -0.0018 8.8689
38
Energy=2.1578953945146147
C 2.5743 2.4797 1.6444
C 3.0838 1.1595 1.1375
C 4.2092 1.0698 0.3087
C 4.6797 -0.1638 -0.1485
C 4.0312 -1.3447 0.2196
C 2.909 -1.2803 1.0448
C 2.4409 -0.0413 1.4866
N 1.2702 0.0 2.327
C 0.0 0.0 1.7726
S 0.0 0.0 0.0
N -1.1064 0.0136 2.441
C -1.1028 0.0389 3.8337
O -2.1478 0.0207 4.4597
C 0.2269 0.1026 4.5197
C 0.2256 0.167 5.8902
C 1.3357 0.2382 6.7851
C 1.1329 0.2977 8.134
C 2.1598 0.372 9.1232
C 2.108 0.4366 10.5048
C 3.4555 0.4939 10.9624
C 4.2354 0.4607 9.8342
O 3.4688 0.3877 8.7268
C 1.4656 0.0914 3.7275
O 2.601 0.155 4.1632
H 3.138 3.3151 1.2066
H 1.5096 2.617 1.3969
H 2.672 2.5355 2.7406
H 4.7249 1.9883 0.0178
H 5.5594 -0.2015 -0.7953
H 4.3969 -2.3116 -0.1323
H 2.3798 -2.1852 1.3485
Au -2.3067 0.0724 -0.26
H -0.7777 0.1611 6.332
H 2.3453 0.2447 6.375
H 0.1111 0.2899 8.5268
H 1.2016 0.4412 11.1061
H 3.8058 0.5521 11.9902
H 5.3103 0.4813 9.6735
30
Energy=-0.7147320784509784
C -2.0635 0.1108 7.213
C -1.1315 0.0777 6.0308
C 0.2711 0.059 6.1989
C 1.137 0.0294 5.1
C 0.5475 0.0193 3.835
C -0.8717 0.0355 3.7933
N -1.7062 0.0672 4.8142
N -1.2013 0.0084 2.445
C -2.5477 0.0648 1.91
C -2.9829 1.5033 1.6044
C -4.3566 1.5424 1.0065
N -4.8291 0.6407 0.1943
C -6.102 0.9438 -0.2163
C -6.627 2.1038 0.2889
S -5.4734 2.8556 1.3382
C 0.0 0.0 1.758
N 1.0555 0.0 2.5492
S 0.0 0.0 0.0
H -2.7257 -0.7702 7.2043
H -2.7147 0.9985 7.1635
H -1.5168 0.1289 8.1661
H 0.6799 0.0697 7.2112
H 2.2218 0.0165 5.2231
H -3.213 -0.3787 2.6635
H -2.6056 -0.5461 0.9991
H -2.9463 2.1049 2.525
H -2.264 1.95 0.8948
H -6.6236 0.2722 -0.9003
H -7.6067 2.5417 0.1087
Au 2.301 -0.0885 -0.2509
28
Energy=0.2535330383781002
Br 3.9627 -0.0875 9.048
C 2.9509 -0.0559 7.4423
C 3.0726 -1.1143 6.5386
C 2.3153 -1.0643 5.3739
F 2.4175 -2.0778 4.5036
C 1.4508 -0.0067 5.059
C 1.3741 1.0288 6.0031
C 2.1037 1.0243 7.1895
F 0.5852 2.0698 5.7503
C 0.6241 -0.0008 3.8433
N -0.6875 0.0007 3.8226
N -1.0833 -0.0007 2.522
C -0.0 -0.0 1.7587
N 1.1227 -0.0 2.5499
C 2.5386 0.0697 2.1506
C 2.9526 -1.1738 1.3648
C 2.8354 1.3828 1.4255
S 0.0 0.0 0.0
H 3.7249 -1.9662 6.7264
H 2.0048 1.8567 7.8851
H 3.0928 0.0763 3.0996
H 2.7486 -2.0817 1.9488
H 4.0303 -1.133 1.1454
H 2.4101 -1.2418 0.4099
H 2.5451 2.2439 2.046
H 3.9124 1.4547 1.2113
H 2.2894 1.4463 0.4724
Au -2.3195 0.0128 -0.187
41
Energy=1.2225170018686276
F -5.8032 -0.0131 -0.8415
C -4.7077 -0.0099 -0.072
C -4.1452 -1.2267 0.309
C -3.0041 -1.2177 1.1091
C -2.4396 -0.0028 1.5085
C -3.0229 1.2084 1.1254
C -4.1644 1.2103 0.3258
N -1.2633 0.0006 2.3331
C 0.0 -0.0 1.7746
S 0.0 0.0 0.0
N 1.1107 -0.0 2.4428
C 1.0961 -0.0005 3.831
O 2.1602 -0.0075 4.4617
C -0.2055 0.0094 4.5
C -0.2966 0.0221 5.8881
N 0.7538 0.0251 6.6951
N 0.6089 0.0585 8.0785
C 1.0521 1.3426 8.6673
C 2.474 1.2726 9.2249
C 2.5555 0.2249 10.3564
C 1.4999 -0.8845 10.1657
C 1.2233 -1.1329 8.6867
C -1.4493 0.0082 3.7492
O -2.5773 0.0137 4.2067
H -4.6062 -2.1583 -0.0222
H -2.5402 -2.1531 1.425
H -2.5737 2.1466 1.4541
H -4.6401 2.1391 0.0074
Au 2.3057 0.0017 -0.267
H -1.2802 0.034 6.3666
H 1.6765 0.0022 6.2189
H 0.3481 1.6168 9.4711
H 0.9571 2.1099 7.887
H 2.7913 2.2655 9.5805
H 3.1623 1.0054 8.4053
H 2.4057 0.7078 11.3354
H 3.5655 -0.2151 10.3798
H 1.8271 -1.8225 10.6392
H 0.5522 -0.6043 10.654
H 0.5465 -1.9899 8.5405
H 2.1756 -1.3853 8.1738
46
Energy=3.9697461265404295
F 5.7996 -0.2782 -0.8473
C 4.7069 -0.2121 -0.0783
C 4.0363 -1.3894 0.2472
C 2.8988 -1.3148 1.0493
C 2.4435 -0.0728 1.5011
C 3.1336 1.0977 1.1732
C 4.274 1.033 0.3756
N 1.2694 0.0 2.3284
C 0.0 -0.0 1.7698
S 0.0 0.0 0.0
N -1.1074 0.0026 2.4386
C -1.1088 0.027 3.8286
O -2.1492 -0.044 4.4555
C 0.2206 0.1689 4.5209
C 0.2031 0.2537 5.8793
C 1.2789 0.438 6.8496
C 1.324 -0.4634 7.9508
C 0.4069 -1.5522 8.0913
C 0.4816 -2.4133 9.1598
C 1.4935 -2.261 10.1493
C 2.4054 -1.2422 10.0419
C 2.3518 -0.3172 8.9526
C 3.282 0.7218 8.8321
C 3.229 1.6414 7.778
C 4.1698 2.7162 7.6918
C 4.0958 3.6401 6.6824
C 3.0582 3.5442 5.712
C 2.1459 2.5196 5.7564
C 2.2048 1.5134 6.7685
C 1.4666 0.0876 3.7321
O 2.5935 0.0746 4.1767
H 4.413 -2.3429 -0.1256
H 2.354 -2.2192 1.324
H 2.7711 2.0566 1.5463
H 4.833 1.9285 0.1005
Au -2.3068 0.0291 -0.2671
H -0.8058 0.1338 6.2926
H -0.3592 -1.7109 7.3314
H -0.2382 -3.2304 9.2474
H 1.5424 -2.9611 10.9863
H 3.194 -1.1184 10.7884
H 4.067 0.823 9.5863
H 4.9451 2.7877 8.4587
H 4.8174 4.4582 6.6266
H 2.9848 4.301 4.9273
H 1.3469 2.4803 5.0176
18
Energy=-0.5604679124006127
F 3.3925 0.8224 2.0976
C 2.5253 -0.1775 1.7942
C 1.2109 0.0 2.5317
C 1.1598 0.1262 3.9321
I 2.8833 0.0608 5.1779
C -0.059 0.2994 4.5975
C -1.2469 0.3183 3.875
C -1.2086 0.1372 2.4972
C -0.0 0.0 1.7912
S 0.0 0.0 0.0
N -2.5185 0.0756 1.8201
O -2.7609 -0.908 1.1442
O -3.2867 0.9955 2.0361
F 3.1012 -1.357 2.1581
H 2.3723 -0.1855 0.7081
H -0.0799 0.4171 5.6812
H -2.2065 0.463 4.3727
Au -0.2901 -2.2504 -0.4256
31
Energy=-1.1346364585692792
S 0.0 0.0 0.0
C 0.0 0.0 1.758
N -1.0311 -0.0002 2.5732
N -0.5462 -0.0005 3.8534
C 0.7631 -0.0004 3.8182
N 1.1732 0.0 2.484
C 2.4763 -0.002 1.8965
C 3.1014 1.2107 1.5896
C 4.3613 1.2053 0.9886
C 4.9891 -0.0068 0.6869
C 4.3518 -1.2165 0.9784
C 3.0919 -1.217 1.5794
C 1.6591 -0.0007 5.0398
C 2.552 -1.2591 5.0576
C 2.543 1.2639 5.0643
C 0.7584 -0.0071 6.2869
Au -2.3095 -0.01 -0.2079
H 2.5918 2.1467 1.8231
H 4.8521 2.1517 0.7514
H 5.9748 -0.0087 0.2163
H 4.8352 -2.1647 0.7333
H 2.575 -2.1508 1.8056
H 3.2662 -1.2698 4.2227
H 1.9418 -2.174 5.0051
H 3.1321 -1.2893 5.9934
H 1.9263 2.1747 5.0167
H 3.1231 1.2932 6.0001
H 3.257 1.2839 4.2294
H 0.1038 0.875 6.3078
H 1.3866 -0.007 7.1912
H 0.1103 -0.894 6.3035
21
Energy=1.5342194403809473
Cl -3.0692 0.3285 4.3855
C -1.4632 0.1994 3.7198
C -1.2897 0.09 2.3446
C -0.0 0.0 1.7905
S 0.0 0.0 0.0
C 1.1351 0.0 2.641
C 0.9317 0.0525 4.0442
C -0.3631 0.1792 4.5704
C 2.0659 -0.0695 5.0352
O 3.1153 -0.6044 4.7374
C 1.8583 0.4765 6.4363
C 2.5526 -0.0369 2.0937
F 2.6826 0.7385 0.9879
F 2.8958 -1.3157 1.7402
H -2.1557 0.0663 1.6832
Au 1.0846 -1.9503 -0.5639
H -0.5288 0.2347 5.6441
H 1.4219 1.4864 6.4254
H 1.1764 -0.1746 7.0069
H 2.83 0.4873 6.9453
H 3.288 0.3034 2.8275
25
Energy=2.1077494210021697
C 4.6644 -1.0485 3.9085
O 3.4411 -0.6509 4.4838
C 3.4101 -0.0836 5.7098
C 4.5542 0.121 6.4903
C 4.4419 0.6658 7.7725
C 3.1897 0.9994 8.291
C 2.0544 0.7947 7.5105
C 2.127 0.2764 6.2018
C 0.8778 0.1411 5.4665
C 0.546 0.0225 4.1599
S 1.5203 -0.0 2.6904
C -0.0 0.0 1.7488
S 0.0 0.0 0.0
N -1.1154 -0.0178 2.3843
C -0.9297 -0.0097 3.7786
O -1.826 -0.0155 4.5883
H 5.1637 -1.8225 4.5163
H 4.4157 -1.4669 2.9243
H 5.3505 -0.1935 3.7777
H 5.5369 -0.1526 6.1081
H 5.3444 0.818 8.3691
H 3.0978 1.4134 9.2968
H 1.069 1.0519 7.9062
H -0.0189 0.1998 6.0955
Au 2.2504 0.0926 -0.5034
25
Energy=0.11507567152464167
C 3.9296 1.6521 2.6293
C 3.6511 0.2075 2.243
O 2.3538 0.0403 1.6813
C 1.2544 0.0 2.4551
C 1.3013 -0.0152 3.8537
C 0.1069 -0.0209 4.5668
F 0.1673 -0.035 5.9039
C -1.1288 -0.0017 3.9406
C -1.1903 -0.0027 2.5395
C -0.0 0.0 1.7738
S 0.0 0.0 0.0
C -2.6066 0.0056 1.99
O -3.4685 0.5807 2.6224
C -2.9609 -0.7653 0.7376
H 3.8167 2.3071 1.752
H 4.9592 1.7513 3.0074
H 3.2421 2.0063 3.4117
H 3.7921 -0.4789 3.0957
H 4.3367 -0.1177 1.4476
H 2.2382 -0.0193 4.4072
H -2.0486 0.0217 4.5239
Au 0.9377 2.0511 -0.5032
H -4.0225 -1.0419 0.8027
H -2.8126 -0.1234 -0.1432
H -2.3332 -1.6568 0.5984
47
Energy=1.2744059251742432
C 3.3768 -0.048 9.3587
C 2.091 -0.023 8.6041
C 1.8407 -0.0146 7.2604
C 0.4083 -0.0222 7.0674
C -0.41 -0.0135 5.902
C -0.1953 -0.003 4.5393
C 1.1149 0.0001 3.843
O 2.1888 0.0032 4.4229
N 1.102 0.0 2.4446
C 0.0 0.0 1.7736
S 0.0 0.0 0.0
N -1.2648 0.0017 2.3367
C -1.4424 0.0034 3.7428
O -2.5737 0.0089 4.192
C -2.4454 0.0014 1.5167
C -3.0348 1.2121 1.1463
C -4.1755 1.1996 0.3435
C -4.729 -0.0095 -0.0857
C -4.1285 -1.2102 0.3025
Br -4.8752 -2.8645 -0.2747
C -2.989 -1.2185 1.1065
C -0.1734 -0.0388 8.358
C -1.5997 -0.0365 8.7936
N 0.8486 -0.0384 9.2665
C 0.688 -0.0534 10.6791
C 0.9146 1.0958 11.4411
C 0.7473 1.017 12.8231
C 0.353 -0.2044 13.3797
N 0.1345 -1.304 12.6546
C 0.3042 -1.2302 11.3359
H 3.4433 -0.9216 10.029
H 3.5168 0.8496 9.9844
H 4.2126 -0.0979 8.6482
H 2.5661 -0.0104 6.4558
H -1.4819 -0.0177 6.1231
Au 2.31 -0.0045 -0.2447
H -2.5924 2.1493 1.4859
H -4.6424 2.1407 0.0455
H -5.6195 -0.0229 -0.7153
H -2.5191 -2.1538 1.4094
H -1.8821 -0.986 9.2782
H -2.2714 0.114 7.94
H -1.7918 0.7662 9.524
H 1.2097 2.0254 10.95
H 0.9129 1.8879 13.4603
H 0.2091 -0.2954 14.4622
H 0.1343 -2.1411 10.7505
24
Energy=2.0534020063597707
C 3.5775 -0.0267 4.0119
O 2.3182 0.0733 4.6389
C 1.199 0.0856 3.8932
C 1.2079 -0.0 2.4964
C -0.0 -0.0 1.7846
S 0.0 0.0 0.0
C -1.2125 0.0913 2.4724
C -1.2297 0.192 3.8733
C -0.027 0.1954 4.599
C 0.0106 0.2741 6.1109
F 0.7534 1.3404 6.5128
F 0.5965 -0.8516 6.6181
C -2.5699 0.3343 4.561
O -2.7558 1.0743 5.5125
N -3.5732 -0.411 4.0134
H 3.6729 -0.9648 3.4372
H 4.3229 -0.0205 4.817
H 3.7657 0.8276 3.3383
H 2.142 -0.0662 1.9426
Au 0.3139 -2.225 -0.5025
H -2.1427 0.1157 1.9051
H -0.9884 0.3744 6.5487
H -4.4863 -0.358 4.4498
H -3.3946 -1.1385 3.3349
21
Energy=0.7110812198810453
O -2.2069 0.0499 6.1354
C -2.4012 -0.2306 4.7704
C -1.1247 -0.1558 3.9509
C 0.1218 -0.1757 4.5844
C 1.2898 -0.1019 3.8235
Cl 2.8403 -0.1161 4.6279
C 1.2428 0.0 2.4341
C 0.0 0.0 1.7792
C -1.1749 -0.0862 2.553
O -2.418 0.0001 1.9488
C -2.9122 -1.1383 1.3575
F -3.4772 -1.937 2.2989
F -3.879 -0.7512 0.5161
S 0.0 0.0 0.0
H -1.9715 0.9837 6.2206
H -2.8025 -1.2551 4.7122
H -3.1655 0.4196 4.3071
H 0.1644 -0.2451 5.6709
H 2.1607 0.0849 1.8529
H -2.1395 -1.7109 0.8209
Au -1.4568 1.7109 -0.5351
39
Energy=-1.2554250248187386
S 0.0 0.0 0.0
C 0.0 0.0 1.8434
C 1.3823 0.0 2.5
C 1.2982 0.2517 4.0142
C 1.4288 1.7313 4.4429
C 0.7051 2.0215 5.7669
C -0.7321 2.3181 5.3113
C -0.546 3.113 4.0089
N 0.7783 2.6926 3.5345
C 1.5105 3.3917 2.6281
O 2.688 3.1974 2.3797
O 0.742 4.3398 2.0271
C 1.3059 5.2796 1.0728
C 2.3916 6.1276 1.7411
C 1.8684 4.5388 -0.1474
C 0.1068 6.1364 0.6744
Au 0.7765 2.1312 -0.3411
H -0.5482 -0.9174 2.1188
H -0.6022 0.8463 2.2013
H 1.8681 -0.967 2.296
H 2.0207 0.7644 2.0319
H 2.0951 -0.2992 4.5397
H 0.3488 -0.1638 4.396
H 2.4954 1.9909 4.4762
H 1.1437 2.9114 6.2471
H 0.7719 1.1852 6.4781
H -1.3191 2.8745 6.056
H -1.2672 1.3774 5.1084
H -1.3272 2.9008 3.2621
H -0.5523 4.2004 4.1853
H 1.9832 6.6109 2.6415
H 2.7294 6.9163 1.0518
H 3.2508 5.5093 2.0282
H 1.0158 4.0505 -0.7098
H 2.6647 3.8427 0.1423
H 2.2722 5.2442 -0.889
H -0.687 5.5083 0.2432
H 0.4052 6.8907 -0.0689
H -0.302 6.6535 1.5545
32
Energy=0.8029227259217449
O -3.4575 -0.4317 2.8957
C -2.5972 0.0971 2.2089
C -1.1488 0.0455 2.6334
C -0.9327 -0.0064 4.0171
C 0.3623 -0.0126 4.5267
C 1.4208 0.0224 3.6157
N 1.2362 -0.0 2.2972
C -0.0 -0.0 1.8032
S 0.0 0.0 0.0
N -2.8506 0.8092 1.0674
C -4.0424 0.8815 0.335
C -3.973 1.4458 -0.9545
C -5.106 1.5384 -1.7498
C -6.3487 1.0686 -1.2842
C -6.4076 0.5081 0.0022
C -5.2785 0.4099 0.811
C -7.524 1.1803 -2.1516
N -7.5054 1.6849 -3.3586
C -8.7408 1.6653 -3.9403
C -9.7503 1.1356 -3.178
S -9.1239 0.633 -1.6461
H -1.807 -0.0316 4.6701
H 0.5497 -0.0404 5.6016
H 2.4599 0.049 3.9624
Au -1.4856 -1.6712 -0.5817
H -2.0252 1.1369 0.5688
H -3.013 1.811 -1.3285
H -5.0551 1.9737 -2.7485
H -7.359 0.136 0.391
H -5.3343 -0.029 1.8034
H -8.869 2.0576 -4.9508
H -10.8026 1.0176 -3.4285
45
Energy=-0.2978592610775294
C -0.9935 -1.5593 4.2875
C -1.0735 -0.0703 3.8913
C -2.3721 0.5241 4.4477
C 0.1199 0.7505 4.4032
C 1.4651 0.3545 3.7833
C 2.4569 1.513 3.9244
O 2.0696 -0.7292 4.4803
N 1.2616 0.0 2.3661
C 2.4296 -0.4702 1.6252
C 2.4766 -1.9993 1.4455
C 3.8335 -2.4614 1.0192
C 4.2316 -2.9295 -0.2123
N 5.5872 -3.2075 -0.1953
C 6.0978 -2.9203 1.0528
C 7.3983 -3.0336 1.5615
C 7.6067 -2.6588 2.8867
C 6.5476 -2.1834 3.6907
C 5.2549 -2.0719 3.1867
C 5.0164 -2.4427 1.8491
C 0.0 0.0 1.8032
S 0.0 0.0 0.0
N -1.1194 0.0247 2.433
H -1.9129 -2.0743 3.9721
H -0.1636 -2.075 3.7782
H -0.8856 -1.6845 5.3771
H -2.4663 1.5798 4.152
H -2.3998 0.4624 5.5474
H -3.238 -0.0196 4.0412
H -0.0817 1.8046 4.1571
H 0.2268 0.683 5.4965
H 3.4677 1.2134 3.618
H 2.5084 1.819 4.979
H 2.133 2.3683 3.3154
H 1.4361 -1.4572 4.5209
H 2.4805 0.025 0.6426
H 3.3219 -0.1554 2.1752
H 2.2205 -2.457 2.4145
H 1.7073 -2.3086 0.7224
H 3.6409 -3.0898 -1.1125
H 6.1178 -3.5717 -0.974
H 8.2205 -3.4022 0.9433
H 8.6103 -2.7347 3.3121
H 6.7503 -1.8996 4.7262
H 4.4378 -1.7026 3.8121
Au -2.3036 0.0102 -0.2399
20
Energy=0.38377876542110423
N -0.3343 -0.0199 7.1838
C -0.288 -0.0001 6.0244
C -0.1916 0.0186 4.5972
C 1.0587 -0.0255 3.9672
C 1.1647 0.0 2.5768
C 2.5207 0.0579 1.9612
O 2.9956 0.9228 1.313
Cl 3.4843 -1.4614 2.3286
C -0.0 -0.0 1.7764
C -1.256 0.0336 2.4071
C -1.3568 0.0581 3.7978
O -2.5386 0.103 4.4711
C -3.7013 -0.3059 3.853
F -4.6165 -0.4368 4.8083
F -4.1279 0.636 2.9816
S 0.0 0.0 0.0
H 1.959 -0.0727 4.581
H -2.15 0.0516 1.7857
H -3.5682 -1.2581 3.3081
Au 1.4989 -1.6907 -0.4937
24
Energy=0.45782555785086354
C 2.9335 -2.2565 3.8564
C 2.4365 -1.4793 5.078
C 1.9927 -0.0408 4.7146
C 0.8839 0.0339 3.7284
O 1.1962 0.0 2.4001
C -0.0 0.0 1.7385
N -1.0211 0.0399 2.5488
C -0.4889 0.0716 3.8227
C -1.3507 0.1261 5.0398
S 0.0 0.0 0.0
C 3.4987 -1.4346 6.1793
H 2.1609 -2.3375 3.0774
H 3.2368 -3.2765 4.141
H 3.8081 -1.7588 3.4044
H 1.5464 -1.9996 5.4765
H 2.8592 0.5159 4.3183
H 1.6746 0.4763 5.6337
H -1.9998 -0.7624 5.0986
H -2.0108 1.0075 5.009
H -0.7475 0.1738 5.9575
Au 0.6661 -2.169 -0.4601
H 3.1331 -0.9053 7.074
H 4.4048 -0.9122 5.8283
H 3.7966 -2.4496 6.4855
21
Energy=4.1040078329789536
C 1.7553 0.008 10.5814
C 1.2759 0.0052 9.1643
C -0.0273 0.0023 8.7048
C -0.144 0.0007 7.2938
C 1.0863 0.0023 6.6465
S 2.3882 0.0059 7.8365
C 1.478 0.0015 5.2645
C 0.7599 0.0003 4.1041
S 1.5915 -0.0 2.533
C -0.0 0.0 1.7415
N -1.0395 0.0001 2.5066
C -0.7236 -0.0002 3.8746
O -1.5693 -0.0006 4.7475
S 0.0 0.0 0.0
H 0.8961 0.0056 11.2672
H 2.3729 -0.8775 10.8051
H 2.3668 0.8982 10.8037
H -0.8837 0.0014 9.3812
H -1.0762 -0.0015 6.7342
H 2.5658 0.0022 5.127
Au -2.3019 0.0046 -0.2919
33
Energy=0.3019399190626294
S 0.0 0.0 0.0
C -0.0 0.0 1.7536
N 1.0683 0.0 2.5279
N 0.6634 0.1037 3.8286
C -0.6405 0.1947 3.8536
N -1.1271 0.1206 2.5581
N -2.4573 0.2818 2.2752
C -3.0317 -0.4341 1.3821
C -2.5468 -1.5557 0.5448
C -2.851 -1.5075 -0.8269
C -2.4082 -2.4998 -1.6945
C -1.6741 -3.5774 -1.1994
C -1.4053 -3.672 0.1677
C -1.8523 -2.6734 1.0506
Cl -1.5858 -2.8611 2.7549
Cl -0.5199 -5.0439 0.7566
C -1.5174 0.4048 5.0536
C -0.8213 -0.0337 6.3704
C -0.8253 1.248 7.2228
C -0.9243 2.3345 6.1529
O -1.8198 1.7954 5.1921
Au 2.2468 0.5385 -0.2265
H -4.0755 -0.1411 1.2034
H -3.4118 -0.652 -1.2089
H -2.6289 -2.4371 -2.7616
H -1.3118 -4.3653 -1.8607
H -2.4747 -0.1079 4.8821
H 0.2043 -0.3605 6.1558
H -1.3562 -0.8654 6.8494
H 0.0703 1.3432 7.8544
H -1.7129 1.2859 7.8741
H -1.3441 3.2869 6.5088
H 0.0682 2.5316 5.7016
26
Energy=0.6767524302568493
C 5.2595 -0.7012 -0.3357
C 4.5628 -2.0356 -0.3528
C 4.8676 -2.9973 -1.3208
C 4.2018 -4.2237 -1.399
C 3.2111 -4.5001 -0.4586
C 2.8775 -3.5786 0.5452
C 3.5479 -2.3303 0.5869
N 3.157 -1.3154 1.4741
C 2.0524 -1.3439 2.3134
O 1.5924 -2.3683 2.7789
C 1.3771 0.0 2.5315
C 0.0 -0.0 1.8455
S 0.0 0.0 0.0
I 2.1883 -6.3614 -0.5218
H 5.7039 -0.4835 0.6499
H 6.0642 -0.6672 -1.0823
H 4.5613 0.1225 -0.5741
H 5.6483 -2.7735 -2.0524
H 4.4597 -4.9457 -2.1739
H 2.1806 -3.8298 1.3417
H 3.4321 -0.3859 1.1811
H 1.986 0.8394 2.1619
H 1.2275 0.1267 3.6164
H -0.5364 0.9265 2.1055
H -0.5919 -0.8441 2.2255
Au 0.7993 -2.1174 -0.5159
30
Energy=0.5488026952437689
N -1.5781 -0.0046 4.9031
C -0.7249 -0.0554 3.8146
N 0.5831 -0.0427 3.8584
N 1.0427 0.0 2.5587
C -0.0 0.0 1.7624
N -1.1643 -0.0222 2.504
C -2.5336 0.0207 1.9737
C -3.2234 -1.304 2.1821
C -3.0697 -2.4302 1.4114
C -3.7909 -3.5593 1.9081
C -4.4856 -3.2785 3.0556
S -4.276 -1.6289 3.5394
C -3.3124 1.2667 2.4512