35
Energy=1.4689037486379524
O 3.222 0.5083 10.6074
C 2.5496 0.4249 9.4481
C 3.1851 0.4003 8.196
C 2.4626 0.3132 7.0146
C 1.0495 0.2468 7.0399
C 0.1538 0.1565 5.9069
C 0.2379 0.094 4.5381
C -1.0969 0.0146 3.833
O -2.1456 -0.024 4.4496
N -1.1015 -0.0021 2.4419
C 0.0 -0.0 1.7697
S 0.0 0.0 0.0
N 1.267 -0.0 2.3333
C 1.4672 0.0913 3.7346
O 2.6137 0.1483 4.1408
C 2.4353 0.0306 1.5057
C 3.0 -1.1398 0.995
C 4.1341 -1.0725 0.185
C 4.7109 0.1683 -0.1038
C 4.1618 1.3449 0.4126
C 3.0297 1.2626 1.2146
F 2.4851 2.3715 1.7195
C 0.4156 0.2735 8.3095
C 1.1403 0.3593 9.4868
Cl 0.3298 0.3887 11.0268
H 4.1718 0.5473 10.4292
H 4.2778 0.4517 8.1597
H 2.9726 0.2947 6.0553
H -0.8998 0.1292 6.2092
Au -2.3079 0.0426 -0.2581
H 2.5312 -2.0953 1.2351
H 4.5693 -1.9884 -0.2189
H 5.5994 0.2242 -0.7365
H 4.5943 2.325 0.2053
H -0.6725 0.2256 8.3727
18
Energy=2.456112415920126
Cl 2.7998 0.1405 6.1937
C 2.7298 0.0546 4.3938
O 3.7339 -0.0066 3.7604
C 1.3523 0.0663 3.8191
C 0.1949 0.1347 4.5943
C -1.0479 0.141 3.9652
F -2.1131 0.2086 4.7629
C -1.1858 0.081 2.5698
C 0.0 -0.0 1.7919
C 1.2483 0.0 2.4232
S 0.0 0.0 0.0
C -2.5538 0.1 1.8985
F -2.658 1.1273 1.0468
F -3.561 0.2105 2.7699
F -2.7634 -1.0361 1.2077
H 0.2345 0.1856 5.681
H 2.1535 -0.0571 1.8196
Au -0.1619 -2.2516 -0.4628
17
Energy=0.7866115347387073
N -3.7885 0.6593 3.7087
C -2.722 0.3044 4.4846
O -2.8248 0.0718 5.676
C -1.3941 0.2037 3.7762
C -1.2623 0.0897 2.3918
C 0.0 0.0 1.7771
S 0.0 0.0 0.0
C 1.1608 0.0 2.5924
C 1.0158 0.0741 3.9915
C -0.2473 0.1761 4.5749
Br 2.5032 0.0514 5.1773
I 3.0808 -0.1479 1.7201
H -3.6709 1.0679 2.7919
H -4.6745 0.7943 4.1816
H -2.1379 0.038 1.744
Au 0.906 -2.0701 -0.5044
H -0.3632 0.2283 5.6574
21
Energy=-0.5261665185014481
C 3.92 0.3861 3.595
C 2.7781 -0.2194 4.3906
O 2.9802 -0.7768 5.4457
C 1.3862 -0.1274 3.8106
C 1.2451 -0.0 2.425
C -0.0 -0.0 1.7725
S 0.0 0.0 0.0
C -1.1481 -0.0903 2.582
C -1.0343 -0.1651 3.9722
C 0.211 -0.1977 4.5988
C 0.2162 -0.2642 6.1206
F 1.0274 0.6564 6.6575
F 0.5634 -1.4685 6.58
F -1.0206 -0.0117 6.6056
Cl -2.7442 -0.0696 1.8982
H 3.6829 1.4031 3.2476
H 4.8112 0.4017 4.2345
H 4.1413 -0.2258 2.7054
H 2.1302 0.0871 1.7961
Au -1.2557 1.866 -0.5219
H -1.9431 -0.1984 4.5698
39
Energy=1.8874167888922844
S 0.0 0.0 0.0
C 0.0 -0.0 1.7373
N 1.0565 -0.0 2.5356
C 0.5994 -0.0143 3.8227
C -0.7983 0.0033 3.8168
N -1.1646 -0.02 2.5032
N -2.4749 0.11 2.0624
C -2.9459 -0.8503 1.3482
C -2.4119 -2.1616 0.9643
C -2.9908 -2.7803 -0.1613
C -2.5482 -4.022 -0.6017
C -1.53 -4.6886 0.0864
C -0.9491 -4.0846 1.2255
C -1.388 -2.8375 1.6555
O 0.0475 -4.702 1.9213
C 0.7032 -5.7357 1.2036
C -0.3219 -6.6461 0.5537
O -1.1309 -5.9082 -0.3555
C 1.5101 -0.0416 4.9734
C 1.0304 -0.0633 6.2952
C 1.9155 -0.087 7.3729
C 3.2961 -0.0908 7.1504
C 3.7825 -0.0704 5.8391
C 2.9001 -0.0461 4.7598
Au -0.351 2.2398 -0.4828
H -1.5446 0.0205 4.6055
H -3.9503 -0.6327 0.96
H -3.7913 -2.2707 -0.7019
H -2.9845 -4.5098 -1.4749
H -0.9075 -2.4248 2.5402
H 1.3208 -6.2866 1.9265
H 1.3637 -5.2983 0.4322
H -0.9611 -7.1063 1.329
H 0.1613 -7.4443 -0.027
H -0.0453 -0.0622 6.4857
H 1.5252 -0.1029 8.3936
H 3.9889 -0.1094 7.9952
H 4.8601 -0.0729 5.6565
H 3.2643 -0.0292 3.7316
32
Energy=-0.22715019182340737
Cl -3.8012 -4.9679 0.916
C -3.2132 -3.975 2.2304
C -1.8376 -3.8024 2.4041
C -1.3878 -3.0046 3.4557
C -2.2997 -2.3749 4.309
C -3.6861 -2.5573 4.1465
C -4.1287 -3.3724 3.0966
C -4.6554 -1.885 5.0818
O -1.8362 -1.5784 5.3253
C -1.6157 -0.1856 5.0077
C -0.7265 -0.0324 3.809
N 0.5848 -0.0212 3.8425
N 1.0489 0.0 2.5609
C -0.0 0.0 1.7546
N -1.1553 -0.0092 2.4919
C -2.5018 -0.0686 1.9551
S 0.0 0.0 0.0
C -1.0124 0.4472 6.2477
H -1.1343 -4.2849 1.7247
H -0.3215 -2.8436 3.6212
H -5.1969 -3.5393 2.9473
H -4.7868 -0.818 4.8298
H -5.6469 -2.3572 5.0347
H -4.2883 -1.9233 6.1175
H -2.5958 0.2764 4.7883
H -2.7244 -1.0765 1.5745
H -2.6031 0.6596 1.1375
H -3.2238 0.1772 2.7418
Au 2.309 0.1284 -0.2066
H -1.6551 0.2417 7.1152
H -0.9149 1.534 6.115
H -0.0131 0.0277 6.4235
35
Energy=-1.07862879171765
S 0.0 0.0 0.0
C -0.0 -0.0 1.8452
C 1.3588 0.0 2.5289
C 1.561 -0.9654 3.6783
C 2.1901 -1.247 2.3442
C 2.086 1.3386 2.6204
N 1.9337 2.0354 3.8818
C 0.5921 2.3315 4.3316
C 0.603 2.5442 5.8654
C 0.3977 1.2525 6.6373
O 1.8476 3.0843 6.2959
C 2.434 3.9256 5.3417
C 2.8658 3.1508 4.0792
C 2.9836 4.1277 2.8995
Au 0.7168 2.1109 -0.5483
H -0.6436 0.8159 2.2014
H -0.528 -0.9423 2.0686
H 2.1998 -0.6173 4.4932
H 0.7118 -1.5763 3.9981
H 3.2723 -1.1298 2.242
H 1.7683 -2.0397 1.7201
H 3.1663 1.175 2.4766
H 1.7661 1.9581 1.7494
H 0.1445 3.2116 3.8157
H -0.0622 1.4797 4.1094
H -0.2063 3.2607 6.1208
H 1.1479 0.5122 6.3234
H -0.6082 0.8417 6.4589
H 0.5182 1.4346 7.7155
H 1.7374 4.7431 5.0577
H 3.3103 4.3979 5.81
H 3.8624 2.7077 4.2639
H 3.6176 4.9855 3.1776
H 1.9953 4.5219 2.6104
H 3.4355 3.6583 2.0137
21
Energy=0.6139101731253035
O -1.2865 -0.5288 6.2296
C -1.7488 -0.2989 5.121
C -0.8762 -0.1724 3.9272
S 0.8449 -0.1354 4.2086
C 1.1586 -0.0 2.525
C 0.0 -0.0 1.7665
C -1.17 -0.1062 2.5854
S 0.0 0.0 0.0
N -3.0906 -0.1542 4.895
C -4.0316 -0.171 6.0043
C -4.1543 1.173 6.6702
C -5.2289 1.967 6.6321
Cl -5.2696 3.5208 7.4085
Cl -6.7095 1.548 5.8092
H 2.1774 0.0756 2.1485
H -2.1748 -0.1496 2.164
Au -0.5025 2.1877 -0.5306
H -3.3975 0.2599 4.0234
H -3.649 -0.8978 6.735
H -5.0075 -0.5177 5.6405
H -3.2737 1.539 7.2042
22
Energy=0.8108551004035044
C 4.2345 -0.9471 0.705
C 2.953 -1.2209 1.4574
O 2.4127 0.0429 1.8854
C 1.2124 -0.0 2.5131
C 1.1824 0.0365 3.9182
Cl 2.6901 0.0219 4.7874
C -0.0221 0.0829 4.6195
C -1.215 0.078 3.9046
C -1.2188 0.0121 2.5041
C 0.0 -0.0 1.7822
S 0.0 0.0 0.0
C -2.575 -0.0324 1.8869
O -3.5116 0.6153 2.2245
Cl -2.7723 -1.331 0.6436
H 4.0325 -0.3481 -0.1973
H 4.7026 -1.8937 0.3946
H 4.9437 -0.3945 1.3396
H 2.2127 -1.7318 0.8198
H 3.1378 -1.8407 2.3516
H -0.0144 0.118 5.7091
H -2.1701 0.1138 4.4309
Au 1.6089 1.5929 -0.4909
40
Energy=4.291953967953448
S 0.0 0.0 0.0
C 0.0 -0.0 1.7319
N -1.0371 0.001 2.5001
C -0.7025 0.0005 3.8562
O -1.5184 -0.0042 4.7505
C 0.8017 0.0033 4.0717
S 1.6213 0.0 2.5082
C 1.4707 0.0136 5.2594
C 2.9723 0.0166 5.2491
O 3.7132 0.0458 4.2702
N 3.3925 0.0163 6.5543
C 4.793 0.0086 6.927
C 5.4052 1.4199 6.9296
O 5.7916 1.9458 7.9568
N 5.4325 1.9757 5.6796
C 5.8122 3.2757 5.3066
C 5.6084 3.6476 3.966
C 5.9612 4.9173 3.5175
C 6.5207 5.8314 4.4142
Cl 6.9659 7.4289 3.8591
C 6.7247 5.4761 5.7488
C 6.3742 4.2031 6.1999
C 2.2911 0.0862 7.4251
C 2.3052 0.1821 8.8082
C 1.0668 0.2223 9.4678
C -0.1331 0.1743 8.7523
C -0.1371 0.0965 7.3539
C 1.085 0.0572 6.6715
Au -2.2988 0.013 -0.3198
H 4.906 -0.4097 7.933
H 5.3278 -0.6318 6.2084
H 5.0663 1.3895 4.9274
H 5.1607 2.932 3.2711
H 5.8015 5.2028 2.4769
H 7.1614 6.1993 6.439
H 6.5279 3.9186 7.238
H 3.2419 0.2485 9.3628
H 1.0475 0.299 10.5573
H -1.084 0.2071 9.2877
H -1.0655 0.0704 6.7896
25
Energy=0.1972190568520814
N 2.4458 -0.0003 4.2512
C 1.2407 -0.0 3.6483
N 1.2157 -0.0 2.3036
C -0.0 0.0 1.7674
S 0.0 0.0 0.0
N -1.1514 0.0001 2.4526
C -1.0192 0.0002 3.7869
N 0.1471 0.0 4.433
C -2.2636 0.0013 4.5999
C -3.5208 0.0002 3.9764
C -4.6854 0.0005 4.74
C -4.6036 0.0025 6.1372
C -3.3539 0.0003 6.7673
C -2.1908 -0.0 6.0015
C -5.8627 0.0608 6.9632
F -5.7044 -0.5287 8.161
F -6.2381 1.3332 7.199
F -6.8942 -0.5431 6.3471
H 2.4963 -0.0003 5.2601
H 3.2825 -0.0003 3.6845
Au -2.2629 -0.0031 -0.4404
H -3.5648 -0.0036 2.8875
H -5.6625 -0.0076 4.2545
H -3.2959 -0.0078 7.8568
H -1.2076 -0.0039 6.4717
21
Energy=0.39777950159309494
C -2.9701 -1.2319 1.2378
O -2.4059 -0.0046 1.6975
C -1.2648 -0.096 2.4283
C -1.3319 -0.1986 3.8241
Br -3.0284 -0.2786 4.6786
C -0.1682 -0.2341 4.5927
C 1.0654 -0.144 3.9601
C 1.1846 0.0 2.5691
C -0.0 -0.0 1.7896
S 0.0 0.0 0.0
C 2.6331 0.1399 2.1065
O 3.5396 -0.1375 2.878
N 2.8695 0.6387 0.8694
H -3.8658 -0.9664 0.6615
H -3.259 -1.8713 2.0877
H -2.2613 -1.7664 0.5858
H -0.2351 -0.3237 5.6777
H 1.9922 -0.1724 4.5336
Au -1.1776 1.9286 -0.4829
H 3.8398 0.6891 0.5821
H 2.1242 0.7321 0.1855
19
Energy=2.541322303848524
C 3.0098 1.0749 1.4986
O 2.3935 -0.1362 1.9413
C 1.1849 0.0 2.546
C -0.0 -0.0 1.7727
S 0.0 0.0 0.0
C -1.2413 0.0638 2.4267
C -1.3074 0.1399 3.8094
C -0.1455 0.1451 4.6015
C 1.1084 0.0689 3.949
Br 2.7575 -0.0046 4.8885
C -0.2486 0.2853 6.0794
O 0.5614 0.7287 6.8236
Cl -1.8292 -0.3229 6.7618
H 3.9403 0.7843 0.9941
H 3.2456 1.7227 2.3582
H 2.3584 1.6076 0.7882
Au 1.5302 -1.6553 -0.5091
H -2.1559 0.0432 1.8322
H -2.2759 0.1871 4.3047
24
Energy=-0.8865961011884196
C 2.6653 1.1966 5.1254
O 1.9958 -0.038 4.8913
C 0.9094 0.0039 4.0644
C -0.3723 -0.0039 4.6208
C -0.5662 -0.0681 6.1164
C -0.3362 -1.4754 6.6836
C -1.456 -0.0117 3.7287
C -1.2841 -0.0021 2.3503
C -0.0 0.0 1.7697
C 1.1121 0.0 2.6588
C 2.4642 -0.0308 2.2055
N 3.5713 -0.0452 1.8399
S 0.0 0.0 0.0
H 3.1079 1.6002 4.2001
H 3.4697 0.9877 5.8427
H 1.9766 1.945 5.5548
H -1.5873 0.2699 6.3558
H 0.1217 0.6358 6.6109
H -1.0263 -2.2022 6.2268
H 0.6924 -1.8076 6.4796
H -0.4945 -1.4922 7.7737
H -2.4716 -0.0204 4.134
H -2.1575 -0.0027 1.6955
Au 2.2243 -0.0465 -0.622
15
Energy=0.9729182416061695
Cl -2.9295 1.6284 1.1384
C -2.5363 -0.0629 1.6594
O -3.3153 -0.9414 1.504
C -1.2477 -0.1327 2.4199
C -1.3291 -0.3358 3.7997
C -0.1702 -0.3429 4.568
C 1.0767 -0.1592 3.9589
C 1.176 0.0 2.565
C -0.0 0.0 1.7755
S 0.0 0.0 0.0
I 3.0688 0.2644 1.6629
Cl 2.4764 -0.1571 4.9903
H -2.3029 -0.4697 4.2743
H -0.2149 -0.4849 5.6481
Au 0.4897 2.2154 -0.4511
21
Energy=2.4431722968648053
F 1.3979 2.0329 7.3341
C 2.4602 1.288 7.0043
C 3.6717 1.5416 7.6312
C 4.7782 0.7632 7.2844
C 4.6549 -0.2535 6.3383
C 3.4214 -0.4854 5.7226
Cl 3.3062 -1.8393 4.6296
C 2.2831 0.2962 6.017
C 0.946 0.1557 5.436
C 0.5668 0.0263 4.15
S 1.533 -0.0 2.6815
C 0.0 0.0 1.7442
S 0.0 0.0 0.0
N -1.1076 -0.0136 2.391
C -0.9161 -0.0062 3.7836
O -1.7981 -0.0117 4.6046
H 3.7296 2.3394 8.3726
H 5.7424 0.943 7.7641
H 5.5031 -0.8878 6.0802
H 0.1042 0.2624 6.1291
Au 2.2538 -0.0186 -0.5028
19
Energy=-0.017432301927836413
Br 3.2783 1.8707 1.7607
C 2.5216 0.0072 1.9488
C 1.1782 0.0 2.5853
C -0.0 0.0 1.7859
S 0.0 0.0 0.0
C -1.254 -0.072 2.4092
C -1.3597 -0.1344 3.7928
C -0.2213 -0.1021 4.6051
C 1.0396 -0.0272 3.9892
Br 2.6147 0.0485 5.0688
C -0.402 -0.1455 6.1096
F 0.2045 -1.2099 6.6581
F -1.704 -0.2246 6.4381
F 0.0857 0.9527 6.7073
H 2.4836 -0.3722 0.9239
H 3.2819 -0.504 2.5438
Au 1.1741 1.9773 -0.3825
H -2.1513 -0.0655 1.7893
H -2.3422 -0.1901 4.2609
17
Energy=1.1999911183982268
S 0.0 0.0 0.0
C 0.0 -0.0 1.7766
C 1.2086 0.0 2.4922
C 1.209 -0.0796 3.8813
C 0.0024 -0.1593 4.5914
C -1.2179 -0.1615 3.8822
C -1.2063 -0.0841 2.4916
C -2.5226 -0.2478 4.636
F -2.6062 -1.3739 5.3636
F -3.5753 -0.238 3.798
F -2.6798 0.7855 5.4806
O -0.0422 -0.2349 5.9359
Au -0.1439 2.2378 -0.5388
H 2.1517 0.0642 1.9468
H 2.1543 -0.0801 4.4319
H -2.1505 -0.0863 1.948
H 0.8541 -0.2266 6.2972
30
Energy=2.5819869408357645
O 2.6106 -0.0036 4.0956
C 1.3849 -0.0026 3.5624
N 1.2728 0.0 2.2592
C 0.0 -0.0 1.7653
S 0.0 0.0 0.0
N -1.1274 0.0017 2.4382
C -1.0743 0.0105 3.8094
O -2.1088 0.0232 4.5009
C 0.2604 -0.0008 4.4389
C 0.3999 -0.0522 5.823
N -0.6664 -0.026 6.616
N -0.5841 -0.2838 7.9597
C -0.0408 -1.4628 8.4465
O 0.5292 -2.2529 7.7208
C -0.1749 -1.6532 9.9261
C -1.1781 -1.0428 10.6954
C -1.2507 -1.2784 12.0695
C -0.3241 -2.1256 12.6835
C 0.6686 -2.7479 11.9191
C 0.7389 -2.5186 10.5459
H 3.2327 -0.0182 3.3479
Au -2.2814 -0.0093 -0.3593
H 1.3846 -0.1196 6.2898
H -1.5755 -0.0545 6.0834
H -0.9517 0.4281 8.5787
H -1.9331 -0.4082 10.2254
H -2.0394 -0.8074 12.6603
H -0.3813 -2.3082 13.7592
H 1.3878 -3.4171 12.3966
H 1.4962 -3.0026 9.9269
31
Energy=1.1928661386168862
F 5.7818 0.002 -0.8707
C 4.6935 0.0016 -0.0935
C 4.1406 1.2202 0.2964
C 3.0057 1.2149 1.1051
C 2.4398 0.0006 1.5034
C 3.0115 -1.2132 1.1118
C 4.1464 -1.2175 0.3033
N 1.2678 0.0 2.3385
C 0.0 0.0 1.7733
S 0.0 0.0 0.0
N -1.097 -0.0001 2.4617
C -1.0176 -0.002 3.8365
C 0.2236 -0.0036 4.5169
C 1.4718 -0.0025 3.743
O 2.5933 -0.0035 4.2066
C 0.2705 -0.0138 5.9196
C -0.9068 -0.0084 6.6524
C -2.1539 0.0073 5.9865
C -2.2044 -0.0059 4.5965
C -3.4655 0.0061 6.7263
O -4.5025 -0.3411 6.2283
O -3.4266 0.4327 8.0081
H 4.604 2.1506 -0.0347
H 2.5498 2.1521 1.4276
H 2.5599 -2.1507 1.4395
H 4.6143 -2.1475 -0.0226
Au -2.2927 -0.0165 -0.3248
H 1.2482 -0.034 6.404
H -0.8543 -0.0537 7.7433
H -3.1685 -0.0163 4.0884
H -2.5552 0.7982 8.2155
19
Energy=1.1999927970112858
F 2.5164 -0.1396 4.3893
C 1.3186 -0.115 3.7996
C 1.2497 0.0 2.4159
C 0.0 0.0 1.7747
S 0.0 0.0 0.0
C -1.1645 -0.0811 2.5661
C -1.0819 -0.1158 3.9674
C 0.1757 -0.1743 4.587
C -2.2491 -0.0939 4.9041
O -2.3057 -0.697 5.926
Cl -3.5345 1.0763 4.4594
O -2.3946 -0.065 1.9355
C -3.0486 -1.241 1.7334
F -2.2924 -2.1426 1.1074
F -4.116 -0.9755 0.9968
F -3.4456 -1.793 2.8898
H 2.1676 0.0875 1.8334
Au -1.6202 1.5481 -0.5504
H 0.2535 -0.2389 5.6721
17
Energy=1.570571167301597
O 2.7095 -1.071 1.3036
N 2.5081 -0.1846 2.1178
O 3.3645 0.5455 2.5824
C 1.1356 -0.0 2.6214
C 1.0294 0.2002 3.991
C -0.2145 0.3775 4.6111
C -0.3696 0.5713 6.0759
O -1.389 0.7338 6.6617
Cl 1.1955 0.5433 6.9955
C -1.3508 0.376 3.7737
C -1.2435 0.198 2.3987
C 0.0 0.0 1.7766
S 0.0 0.0 0.0
F -2.5629 0.5415 4.2783
H 1.936 0.2277 4.5921
H -2.1529 0.2126 1.7976
Au 0.714 -2.1334 -0.5296
20
Energy=0.6081943695090153
N -2.3994 -0.5789 5.874
C -2.3426 0.3142 4.8401
O -3.1607 1.1975 4.6835
C -1.1236 0.15 3.957
C 0.1328 0.1515 4.5761
C 1.3027 0.0828 3.8247
C 1.265 -0.0 2.4306
C 0.0 -0.0 1.7773
C -1.1818 0.0728 2.5554
I -3.0883 -0.0601 1.6194
S 0.0 0.0 0.0
C 2.5514 -0.096 1.6545
H -1.8199 -1.4075 5.8865
H -3.2053 -0.5356 6.4877
H 0.1859 0.2265 5.6644
H 2.2705 0.0913 4.3315
Au -0.8977 -2.0804 -0.4845
H 2.6909 0.7732 0.9934
H 2.5496 -0.9812 0.9998
H 3.4116 -0.1556 2.3366
38
Energy=1.5730059137597328
C 2.5389 3.7494 1.3422
O 2.1657 2.4261 1.6583
C 2.8834 1.4013 1.1563
C 4.0136 1.5296 0.3393
C 4.6728 0.3837 -0.1183
C 4.2255 -0.8924 0.2266
C 3.0984 -1.0234 1.0412
C 2.4275 0.1089 1.4925
N 1.2666 -0.0 2.326
C 0.0 -0.0 1.7723
S 0.0 0.0 0.0
N -1.1036 -0.0094 2.4448
C -1.1039 0.0043 3.8375
O -2.1654 -0.0187 4.4435
C 0.2091 0.0532 4.5244
C 0.4018 0.0893 5.8849
C -0.4699 0.0886 7.002
C -1.8365 0.0526 7.2581
C -1.9913 0.0794 8.6645
C -0.7209 0.13 9.2042
C -0.2215 0.1759 10.6017
O 0.1933 0.1359 8.2213
C 1.4557 0.0732 3.726
O 2.5819 0.1375 4.1771
H 3.5546 3.9822 1.7069
H 1.8172 4.4043 1.8467
H 2.4949 3.9328 0.2543
H 4.3856 2.5143 0.0586
H 5.5534 0.4987 -0.7547
H 4.7492 -1.7797 -0.133
H 2.7195 -2.0047 1.331
Au -2.3063 0.016 -0.2626
H 1.4574 0.1269 6.175
H -2.5921 0.0117 6.4822
H -2.9226 0.0632 9.2261
H 0.3761 1.0859 10.7763
H 0.429 -0.6883 10.8156
H -1.0626 0.1664 11.3072
20
Energy=-0.6864150954356478
F 4.2546 -0.4769 1.0104
C 3.2042 -0.9309 1.7042
O 2.3979 0.1709 1.9254
C 1.1854 0.0 2.5487
C 1.1123 -0.0518 3.947
Br 2.704 0.0409 4.9871
C -0.1178 -0.1527 4.5983
C -1.2862 -0.1675 3.8412
C -1.242 -0.0734 2.4487
C -0.0 0.0 1.7772
S 0.0 0.0 0.0
C -2.5297 -0.0628 1.6599
F -3.5953 0.1289 2.4839
F -2.7138 -1.2588 1.0327
F 2.5635 -1.853 0.9628
H 3.5436 -1.4011 2.6422
H -0.1536 -0.2038 5.6867
H -2.2562 -0.2262 4.3352
Au 1.6012 1.5653 -0.5662
H -2.5321 0.7259 0.8897
26
Energy=-0.5321212868947955
S 0.0 0.0 0.0
C -0.0 0.0 1.8313
C 1.3669 -0.0 2.5332
C 2.2486 -1.1112 1.9546
O 2.1082 -2.272 2.2684
O 3.1538 -0.6342 1.0999
C 4.0064 -1.509 0.2828
C 4.9731 -2.2688 1.1914
C 3.1378 -2.4468 -0.5567
C 4.7504 -0.5176 -0.6087
N 1.1446 -0.1531 3.9633
Au 1.3453 1.7871 -0.5309
H -0.5185 -0.9444 2.0744
H -0.6012 0.827 2.2317
H 1.8549 0.9682 2.3406
H 5.5498 -1.5649 1.8113
H 4.4303 -2.96 1.8482
H 5.6819 -2.8458 0.5776
H 2.3905 -1.8694 -1.1197
H 3.7757 -2.9924 -1.2689
H 2.612 -3.1728 0.0752
H 5.3206 0.1987 0.0017
H 5.4495 -1.0503 -1.2703
H 4.0368 0.0446 -1.2303
H 2.0067 0.0382 4.4739
H 0.9205 -1.1333 4.1502
15
Energy=0.9074093210972948
Cl 3.2539 1.4965 1.5204
C 2.518 -0.108 1.8129
O 3.0435 -1.1116 1.4604
C 1.1989 -0.0 2.5225
C 0.0 0.0 1.782
S 0.0 0.0 0.0
C -1.2196 0.0926 2.4699
C -1.2491 0.1838 3.8583
C -0.0595 0.1708 4.592
C 1.1721 0.0748 3.9206
Cl 2.6656 0.0596 4.807
Cl -0.121 0.2723 6.3212
Au 0.5956 -2.1781 -0.4832
H -2.1486 0.0899 1.898
H -2.1969 0.2584 4.3929
42
Energy=0.5167313813672154
S 0.0 0.0 0.0
C 0.0 0.0 1.7817
N 1.2468 0.0 2.2704
C 1.4546 0.0617 3.5819
C 0.4201 0.0991 4.5189
C -0.883 0.109 4.0274
C -1.1256 0.075 2.6478
C -2.536 0.2825 2.1763
O -2.8175 1.1285 1.3437
N -3.5197 -0.454 2.817
C -4.8847 -0.225 2.358
C -5.1594 -1.0761 1.1019
C -4.2722 -2.3329 1.122
C -4.6714 -3.3767 0.0628
C -4.2928 -2.8837 -1.3105
C -2.9857 -3.1376 -1.8081
C -2.5726 -2.5935 -3.0459
C -3.4485 -1.7849 -3.7839
C -4.736 -1.5533 -3.3031
C -5.152 -2.0952 -2.0795
C -4.1406 -2.8414 2.558
C -3.3164 -1.7996 3.3593
Au -1.6618 -1.3605 -0.8618
H 2.5017 0.0792 3.9079
H 0.6281 0.1365 5.5898
H -1.7325 0.176 4.7112
H -5.564 -0.5025 3.1795
H -5.0118 0.8428 2.1492
H -6.2244 -1.365 1.0698
H -4.9458 -0.4846 0.2007
H -3.254 -2.0092 0.833
H -4.1438 -4.3214 0.2704
H -5.7524 -3.5858 0.1162
H -2.3676 -3.895 -1.3168
H -1.5906 -2.8501 -3.4485
H -3.1258 -1.3578 -4.735
H -5.4283 -0.9365 -3.8808
H -6.1624 -1.8958 -1.7165
H -3.6269 -3.8149 2.5931
H -5.1372 -2.9917 3.0075
H -3.5881 -1.8286 4.4293
H -2.2498 -2.044 3.2852
29
Energy=4.545204189343619
C 3.4268 -0.1053 9.9725
O 4.4932 -0.0564 9.0491
C 4.2132 -0.0286 7.7247
C 2.9267 -0.02 7.1885
C 2.7151 -0.008 5.7909
C 1.3383 -0.0047 5.3225
C 0.8132 -0.0009 4.0767
S 1.6214 0.0 2.5115
C -0.0 -0.0 1.7368
S 0.0 0.0 0.0
N -1.0294 0.0001 2.51
C -0.6885 0.0002 3.8742
O -1.4892 0.0009 4.78
C 3.8322 -0.0012 4.9387
C 5.1171 0.0004 5.48
Br 6.6197 0.0311 4.3164
C 5.3417 -0.0213 6.8638
O 6.5982 -0.0854 7.3569
C 7.09 1.0665 8.0345
H 2.8077 -1.008 9.829
H 3.8813 -0.137 10.971
H 2.7806 0.7872 9.8979
H 2.0574 -0.0302 7.8443
H 0.5662 -0.0062 6.1003
Au -2.2992 -0.0048 -0.3086
H 3.724 0.0125 3.8562
H 8.125 0.8392 8.3219
H 7.0863 1.9432 7.3642
H 6.4979 1.2855 8.936
23
Energy=0.7375124906377993
C 4.6242 0.9281 1.6715
O 3.2816 0.9613 2.1634
C 2.5523 -0.1373 1.9625
O 2.9634 -1.1203 1.3909
C 1.1816 -0.0 2.5563
C 1.0601 0.1082 3.9437
F 2.1697 0.0857 4.6916
C -0.1645 0.2337 4.5863
C -1.3181 0.2431 3.8027
C -1.2509 0.1166 2.4145
C -0.0 -0.0 1.7853
S 0.0 0.0 0.0
O -2.4968 0.3541 4.5194
C -3.678 0.6448 3.9245
F -4.5766 0.8024 4.8839
F -4.0941 -0.3377 3.1116
F -3.6167 1.7675 3.1996
H 5.1857 0.1052 2.1378
H 4.6309 0.7862 0.5808
H 5.0676 1.895 1.936
H -0.22 0.3209 5.6707
H -2.1457 0.0967 1.7974
Au 0.8993 -2.077 -0.4706
24
Energy=0.04642771375731996
C -3.6142 -0.0826 2.3366
O -2.35 -0.047 1.7075
C -1.2364 -0.0656 2.4605
C -1.257 -0.1531 3.8582
C -0.058 -0.1819 4.5726
C 1.1739 -0.0892 3.9103
C 1.2044 0.0 2.5122
C -0.0 0.0 1.7644
S 0.0 0.0 0.0
O 2.3444 0.1339 1.8058
C 3.5872 0.1211 2.4723
C -0.1524 -0.2806 6.0679
O -1.1409 0.0057 6.6902
O 0.9553 -0.7269 6.7053
H -3.7582 0.7798 3.0101
H -3.7554 -1.0135 2.9127
H -4.3585 -0.0403 1.5314
H -2.186 -0.198 4.4223
H 2.1031 -0.037 4.4766
Au 1.034 1.9988 -0.512
H 3.7451 -0.8259 3.0178
H 4.355 0.2193 1.6946
H 3.6807 0.964 3.1794
H 1.5909 -1.0654 6.059
16
Energy=-0.015346585727459483
Cl 0.2595 0.3128 6.3177
C 0.2009 0.1903 4.5841
C -1.0524 0.1743 3.9708
C -1.1535 0.0888 2.5811
Br -2.8936 0.0667 1.8309
C 0.0 0.0 1.7723
C 1.2469 0.0 2.4235
C 1.3708 0.1054 3.8078
C 2.7482 0.1097 4.4361
F 2.9116 -0.9209 5.2798
F 3.7101 0.0151 3.5025
F 2.9745 1.2377 5.1263
S 0.0 0.0 0.0
H -1.9497 0.237 4.5853
H 2.146 -0.085 1.8144
Au -1.0471 -1.9959 -0.5083
39
Energy=0.8216648194558787
Cl -5.6851 -5.6838 11.8335
C -5.3188 -4.2286 10.9339
C -4.8591 -4.3382 9.6164
C -4.5587 -3.1792 8.8934
C -4.7185 -1.9362 9.5021
C -5.1775 -1.8375 10.8228
C -5.4857 -2.984 11.553
C -5.2747 -0.3854 11.2372
C -4.3968 0.3342 10.191
C -4.4701 -0.5568 8.9246
N -3.3099 -0.4778 8.0651
C -3.3699 -0.0112 6.7808
O -4.4087 0.3662 6.2616
C -2.0641 -0.01 6.0265
C -0.8038 0.0058 6.6653
C 0.3586 0.0111 5.9087
C 0.2866 0.0014 4.5076
C -0.9708 0.0006 3.8517
C -2.1396 0.0032 4.6372
N -1.0862 -0.0002 2.4741
C -0.0 0.0 1.7692
N 1.2597 -0.0 2.325
C 1.5179 0.0017 3.7044
O 2.6578 0.0031 4.1248
S 0.0 0.0 0.0
H -4.7381 -5.3263 9.1704
H -4.1962 -3.2519 7.8649
H -5.8406 -2.9308 12.5836
H -6.3239 -0.046 11.167
H -4.9513 -0.2076 12.2743
H -3.3501 0.3534 10.5387
H -4.7011 1.3716 9.9928
H -5.3193 -0.2532 8.2905
H -2.4457 -0.8818 8.4044
H -0.7327 0.0481 7.7539
H 1.3456 0.031 6.3744
H -3.1151 0.0168 4.1516
H 2.0825 0.0014 1.7277
Au -2.2943 0.0203 -0.3099
17
Energy=0.4031136378261429
S 0.0 0.0 0.0
C 0.0 -0.0 1.7476
C -1.1111 0.0881 2.5869
N -0.6253 0.1361 3.8452
N 0.7226 0.0832 3.9029
C 1.126 -0.0 2.6392
C 2.5463 -0.1234 2.2612
C 3.6274 0.2736 3.2376
C 3.4099 -1.1781 2.9346
Au 0.3351 -2.2192 -0.5556
H -2.1734 0.1207 2.3574
H -1.1507 0.2239 4.7066
H 2.7236 0.052 1.1976
H 4.5169 0.7656 2.8354
H 3.287 0.6452 4.2072
H 4.1417 -1.7046 2.3158
H 2.9224 -1.7896 3.6985
51
Energy=1.6414449348498144
C 4.2746 0.0068 8.9774
C 2.921 0.0192 8.3519
C 2.5393 0.0137 7.0385
C 1.0948 0.0064 6.9877
C 0.163 0.0031 5.9101
C 0.2275 0.0012 4.5338
C -1.1016 0.0006 3.8355
O -2.1556 0.0006 4.4503
N -1.1061 -0.0 2.4422
C -0.0 0.0 1.7747
S 0.0 0.0 0.0
N 1.2641 0.0 2.3338
C 1.4594 -0.0003 3.7439
O 2.6029 -0.0014 4.1622
C 2.4374 0.0007 1.5011
C 3.0098 1.2111 1.1045
C 4.1428 1.2066 0.2932
C 4.7254 0.0024 -0.1316
C 5.9293 0.0034 -1.0383
C 4.142 -1.2028 0.2895
C 3.009 -1.209 1.1008
C 0.6451 0.0057 8.3298
C -0.7304 0.014 8.9051
N 1.7515 0.0131 9.1327
C 1.7306 0.0127 10.5575
C 1.9784 1.1964 11.2608
C 1.9667 1.2004 12.6556
C 1.6988 0.0121 13.3419
Cl 1.6783 0.0118 15.0854
C 1.4475 -1.1761 12.6491
C 1.4687 -1.1716 11.2545
H 4.4656 0.9088 9.5827
H 4.4115 -0.8615 9.6439
H 5.0387 -0.0418 8.1902
H 3.1879 0.0095 6.171
H -0.8845 0.001 6.2289
Au -2.3085 -0.0001 -0.252
H 2.5596 2.1491 1.4337
H 4.5859 2.1571 -0.0153
H 6.5532 -0.8894 -0.8821
H 5.6219 0.0068 -2.0987
H 6.5553 0.8939 -0.8772
H 4.5845 -2.1525 -0.0219
H 2.5582 -2.1477 1.4272
H -1.4846 0.1386 8.1191
H -0.8527 0.8345 9.6307
H -0.9547 -0.9232 9.4413
H 2.1761 2.1161 10.7072
H 2.1582 2.1176 13.2136
H 1.2435 -2.0936 13.2021
H 1.2861 -2.0917 10.6964
27
Energy=-0.6597166216733146
C -2.5066 3.5852 0.8467
O -2.143 2.2329 0.9061
C -3.0692 1.4179 1.5699
C -2.5036 0.0101 1.6643
N -1.2348 -0.0249 2.4001
C 0.0 -0.0 1.7751
S 0.0 0.0 0.0
N 1.133 -0.0 2.4137
C 1.1399 -0.0192 3.7829
C -0.0704 -0.0365 4.5184
C -1.349 -0.0321 3.8091
O -2.4471 -0.0357 4.3406
C -0.0227 -0.0543 5.9197
C 1.2188 -0.0566 6.5366
C 2.3659 -0.0403 5.717
N 2.3423 -0.0223 4.3931
H -3.4539 3.7358 0.2902
H -1.7032 4.1245 0.3252
H -2.6323 4.0233 1.8575
H -3.2787 1.7973 2.5891
H -4.0379 1.3764 1.0281
H -3.2152 -0.6254 2.2065
H -2.3342 -0.4085 0.6637
Au 2.2921 -0.2625 -0.2568
H -0.9608 -0.0662 6.4785
H 1.3186 -0.071 7.6233
H 3.3593 -0.0426 6.1828
22
Energy=1.2835019408391732
C 3.8364 -0.0124 3.5918
O 2.6523 -0.1303 4.3597
C 1.456 -0.1336 3.7451
C 1.2797 0.0 2.364
C 0.0 0.0 1.7835
S 0.0 0.0 0.0
C -1.1402 -0.14 2.6247
C -0.9358 -0.2682 4.0115
C 0.3266 -0.2587 4.5813
C 0.5222 -0.4237 6.0658
F 0.9683 -1.6803 6.3469
F -0.6551 -0.2517 6.7239
C -2.5164 -0.1236 2.0797
O -2.8884 0.3262 1.0425
Cl -3.7569 -0.9111 3.1652
H 3.8656 0.9431 3.0413
H 3.9338 -0.8463 2.8767
H 4.6698 -0.047 4.3041
H 2.1345 0.1116 1.7002
Au -0.9947 2.0106 -0.5451
H -1.799 -0.3702 4.6659
H 1.2579 0.2898 6.472
42
Energy=2.869968039109727
Br 6.0766 -3.3498 12.9558
C 5.8984 -2.2126 11.4363
C 4.6277 -1.8871 10.9617
C 4.5076 -1.0524 9.8472
C 5.6372 -0.5381 9.2026
C 6.903 -0.8883 9.6943
C 7.0441 -1.719 10.8053
C 5.5364 0.4084 8.0173
C 5.772 1.8833 8.4041
C 4.3704 2.3633 8.7894
C 3.4637 1.6758 7.761
N 4.1949 0.442 7.4222
C 3.928 -0.3764 6.3547
O 4.7491 -1.1638 5.9114
C 2.5565 -0.2701 5.7392
C 1.3828 -0.3525 6.5191
C 0.1369 -0.3285 5.9091
C 0.0404 -0.2093 4.5149
C 1.2116 -0.1325 3.7183
C 2.4676 -0.1822 4.3532
N 1.1575 0.0 2.3425
C 0.0 0.0 1.7773
N -1.1866 -0.0852 2.4666
C -1.2781 -0.1796 3.8633
O -2.3598 -0.2385 4.4146
S 0.0 0.0 0.0
H 3.7396 -2.2847 11.455
H 3.5154 -0.809 9.4639
H 7.7997 -0.5096 9.1957
H 8.0337 -1.9885 11.1767
H 6.2453 0.0676 7.2494
H 6.1385 2.4359 7.5237
H 6.5107 1.9939 9.2097
H 4.2597 3.4569 8.7758
H 4.121 2.0135 9.8036
H 2.4651 1.4673 8.1692
H 3.326 2.298 6.86
H 1.4575 -0.4621 7.6023
H -0.7863 -0.4048 6.4866
H 3.3675 -0.1544 3.7383
H -2.0677 -0.1144 1.9619
Au -1.9473 1.0752 -0.5947
36
Energy=0.44202071476899374
C -7.2131 -0.6024 -0.2929
C -6.5733 -1.0635 0.9931
C -7.2972 -1.7796 1.9513
C -6.692 -2.2235 3.1282
C -5.3494 -1.9456 3.3478
C -4.576 -1.2087 2.4255
C -3.173 -1.0105 2.7972
N -2.3982 -0.1575 2.233
N -1.0918 -0.0878 2.6346
C 0.0 -0.0 1.7619
S 0.0 0.0 0.0
N 1.1058 -0.0 2.4752
N 0.7718 -0.0575 3.799
C -0.5339 -0.1186 3.9133
C -1.264 -0.1136 5.187
C -2.4727 0.5848 5.3635
C -3.1168 0.5774 6.6016
C -2.5609 -0.1137 7.6822
C -1.3471 -0.7894 7.52
C -0.7021 -0.7915 6.2836
C -5.2169 -0.778 1.238
O -4.5354 -0.0688 0.2693
H -8.27 -0.8972 -0.3331
H -6.7206 -1.0417 -1.1789
H -7.1867 0.4979 -0.3998
H -8.3511 -1.9963 1.7613
H -7.2661 -2.7865 3.8659
H -4.8634 -2.2889 4.2638
H -2.8092 -1.6534 3.6116
Au -2.2868 -0.0524 -0.2979
H -2.9003 1.1523 4.5357
H -4.0528 1.1275 6.7259
H -3.067 -0.1174 8.6504
H -0.9 -1.321 8.3634
H 0.2475 -1.3104 6.1446
H -5.1547 0.2041 -0.4225
18
Energy=1.5249153162910165
N 3.1469 0.1466 5.5047
C 2.2118 0.1172 4.8182
C 1.0424 0.103 3.9819
C -0.2157 0.2144 4.5983
C -1.354 0.2212 3.7968
Cl -2.9241 0.3557 4.5387
C -1.2545 0.1094 2.4094
C -0.0 0.0 1.7854
C 1.1677 -0.0 2.5799
C 2.5494 -0.1761 1.9848
O 2.9273 -1.249 1.5364
N 3.3283 0.9274 2.0161
S 0.0 0.0 0.0
H -0.295 0.2943 5.6818
H -2.1567 0.1004 1.7976
H 3.0128 1.7928 2.4335
H 4.2887 0.8524 1.6987
Au 1.1355 -1.9701 -0.4462
21
Energy=0.20459906160089153
N -0.8107 -2.0298 7.1794
C -0.4022 -1.0492 6.719
C 0.106 0.1877 6.1151
C 0.0714 0.1462 4.6038
C -1.1429 0.1408 3.8997
C -1.1983 0.0928 2.5114
C -0.0 -0.0 1.7828
C 1.2301 -0.0 2.4536
C 1.2396 0.0859 3.8424
F 2.4183 0.0881 4.48
S 0.0 0.0 0.0
O -2.275 0.2419 4.6953
C -3.3735 -0.5157 4.4391
F -4.0535 -0.0674 3.3691
F -4.1658 -0.4401 5.494
F -3.0586 -1.7905 4.2069
H -0.5068 1.0242 6.4874
H 1.1374 0.3502 6.4578
H -2.1534 0.1234 1.9916
H 2.1718 -0.0761 1.91
Au -1.0268 -1.9995 -0.4952
19
Energy=0.645259122353284
S 0.0 0.0 0.0
C -0.0 0.0 1.7828
C -1.2035 0.0874 2.4937
C -1.1873 0.1636 3.8863
Br -2.9024 0.2727 4.7345
C 0.0057 0.1624 4.6397
C 1.2148 0.0796 3.8935
C 1.2032 0.0 2.4942
C 2.5412 0.0737 4.5847
O 2.7266 0.1357 5.7784
O 3.5756 -0.0116 3.7195
C -0.004 0.2442 6.1406
Au -0.1563 -2.2411 -0.5078
H -2.1511 0.0931 1.9552
H 2.145 -0.0646 1.9532
H 4.381 -0.0062 4.2629
H -1.0271 0.297 6.5258
H 0.5067 -0.6234 6.5815
H 0.5605 1.1218 6.4862
21
Energy=2.101951799628637
C 3.1209 1.3194 1.5575
C 2.5546 -0.0756 1.8618
C 1.2045 0.0 2.531
C 0.0 0.0 1.7835
S 0.0 0.0 0.0
C -1.2424 0.1021 2.4338
C -1.3251 0.231 3.8163
C -0.1437 0.2635 4.5459
C 1.109 0.1532 3.9308
C 2.3392 0.2034 4.7783
O 3.1542 -0.6477 4.9135
Cl 2.5393 1.806 5.5881
F -0.2023 0.3773 5.8754
H 3.2318 1.9154 2.4768
H 2.4536 1.8661 0.8741
H 4.1099 1.2398 1.0808
H 3.2504 -0.6323 2.5035
H 2.4542 -0.6398 0.9253
Au 0.1607 -2.2383 -0.5319
H -2.1512 0.0811 1.8305
H -2.2804 0.3053 4.3375
22
Energy=-1.6594413118275813
S 0.0 0.0 0.0
C 0.0 0.0 1.8329
C 1.3575 0.0 2.5512
O 1.4428 0.4912 3.6668
N 2.3708 -0.5948 1.8789
C 3.7765 -0.6461 2.319
C 4.32 0.7836 2.4827
C 3.8831 -1.4179 3.6436
C 4.5503 -1.3791 1.2175
Au 1.1741 1.9209 -0.4707
H -0.5801 0.8373 2.2401
H -0.5308 -0.9317 2.0984
H 2.1597 -0.8823 0.9272
H 3.7364 1.3284 3.2368
H 4.257 1.3283 1.5268
H 5.3743 0.7611 2.7991
H 3.5006 -2.4434 3.5218
H 3.2969 -0.9161 4.4244
H 4.9341 -1.4757 3.9669
H 5.6158 -1.4472 1.4811
H 4.4717 -0.8447 0.2564
H 4.1663 -2.4026 1.0795
38
Energy=4.018764885193904
S 0.0 0.0 0.0
C 0.0 -0.0 1.7409
N -1.0422 0.0014 2.505
C -0.727 0.0085 3.8706
O -1.5737 0.0363 4.7449
C 0.7551 -0.0153 4.1035
S 1.5896 0.0 2.533
C 1.4616 -0.0648 5.2669
C 1.0464 -0.0824 6.6443
C -0.2098 0.1033 7.2263
N -0.0294 0.103 8.5688
N 1.2689 -0.0785 8.9154
C 1.9378 -0.2011 7.7786
C 3.3959 -0.4126 7.7939
C 4.0192 -1.3058 6.9041
C 5.4022 -1.4958 6.9418
C 6.1815 -0.8044 7.8725
C 5.5687 0.0732 8.7731
C 4.1887 0.2676 8.7356
C -1.0179 0.254 9.5767
C -0.6196 0.3743 10.9145
C -1.5865 0.5303 11.9074
C -2.9448 0.5683 11.5796
C -3.3324 0.4437 10.2427
C -2.3775 0.2835 9.2381
Au -2.3011 0.0121 -0.2969
H 2.5491 -0.084 5.1508
H -1.1644 0.2431 6.7344
H 3.4144 -1.8819 6.2014
H 5.8709 -2.1975 6.2477
H 7.2635 -0.9534 7.9009
H 6.1722 0.6124 9.5073
H 3.7034 0.9528 9.4325
H 0.4426 0.3395 11.1505
H -1.2717 0.6237 12.9494
H -3.6976 0.6914 12.3612
H -4.3908 0.4657 9.9734
H -2.6971 0.1748 8.2017
27
Energy=-0.5488987966479604
C -2.5015 0.1342 1.9745
N -1.155 0.0039 2.4997
C 0.0 0.0 1.7561
S 0.0 0.0 0.0
N 1.0515 0.0 2.5558
N 0.5979 0.0022 3.8391
C -0.7186 -0.0059 3.8179
C -1.5648 -0.0037 5.0164
C -2.8167 -0.6474 5.0661
C -3.5815 -0.6464 6.2369
C -3.0838 -0.0014 7.3659
C -1.833 0.6228 7.3307
C -1.0664 0.6296 6.1731
C -1.5548 1.2022 8.6931
O -2.7575 1.0215 9.4303
C -3.6551 0.1554 8.7501
H -2.9526 -0.8482 1.7641
H -3.1282 0.6705 2.6977
H -2.4632 0.7099 1.0391
Au 2.2996 0.2482 -0.2045
H -3.1889 -1.1858 4.1941
H -4.5481 -1.1561 6.2575
H -0.0863 1.1072 6.1283
H -0.7073 0.6827 9.1853
H -1.3055 2.2779 8.6588
H -4.6657 0.6032 8.7493
H -3.7302 -0.8233 9.2682
40
Energy=0.9768740459136853
O -4.6037 -0.383 6.0713
C -3.5946 0.007 6.6313
C -2.2569 0.0084 5.9365
C -1.0217 -0.0107 6.627
C 0.1702 -0.016 5.9196
C 0.155 -0.004 4.5153
C -1.0716 -0.002 3.8118
C -2.275 -0.0039 4.546
N -1.1166 -0.0001 2.4378
C 0.0 -0.0 1.7749
N 1.2543 0.0 2.359
C 1.4162 -0.0028 3.7676
O 2.524 -0.0035 4.2727
C 2.4701 0.001 1.546
S 0.0 0.0 0.0
N -3.5696 0.4971 7.9189
C -4.6202 0.6162 8.84
C -5.9479 0.1384 8.5817
N -6.9244 0.2424 9.4517
C -6.6963 0.8261 10.6582
C -5.4069 1.3383 11.0164
C -4.3697 1.2131 10.0637
C -5.2297 1.9386 12.2932
C -6.2865 2.026 13.1742
C -7.5638 1.5189 12.8204
C -7.7644 0.9318 11.5892
H -0.9917 -0.0611 7.7176
H 1.1368 -0.0394 6.4255
H -3.228 -0.0148 4.0175
H 2.5045 0.8974 0.9095
H 3.3204 0.0006 2.2364
H 2.5048 -0.8942 0.9079
Au -2.296 -0.0192 -0.3055
H -2.689 0.892 8.2258
H -6.1609 -0.3284 7.6196
H -3.371 1.5914 10.3049
H -4.245 2.3288 12.5641
H -6.1432 2.4887 14.1535
H -8.3895 1.5969 13.5315
H -8.7345 0.5327 11.288
34
Energy=1.4565814895598765
O -8.2201 0.384 -0.5475
C -6.953 0.2769 -0.0947
C -6.4883 0.9163 1.0611
C -5.1693 0.7758 1.4837
C -4.2823 -0.0245 0.7469