17
Energy=0.7866115347387073
N -3.7885 0.6593 3.7087
C -2.722 0.3044 4.4846
O -2.8248 0.0718 5.676
C -1.3941 0.2037 3.7762
C -1.2623 0.0897 2.3918
C 0.0 0.0 1.7771
S 0.0 0.0 0.0
C 1.1608 0.0 2.5924
C 1.0158 0.0741 3.9915
C -0.2473 0.1761 4.5749
Br 2.5032 0.0514 5.1773
I 3.0808 -0.1479 1.7201
H -3.6709 1.0679 2.7919
H -4.6745 0.7943 4.1816
H -2.1379 0.038 1.744
Au 0.906 -2.0701 -0.5044
H -0.3632 0.2283 5.6574
25
Energy=0.1972190568520814
N 2.4458 -0.0003 4.2512
C 1.2407 -0.0 3.6483
N 1.2157 -0.0 2.3036
C -0.0 0.0 1.7674
S 0.0 0.0 0.0
N -1.1514 0.0001 2.4526
C -1.0192 0.0002 3.7869
N 0.1471 0.0 4.433
C -2.2636 0.0013 4.5999
C -3.5208 0.0002 3.9764
C -4.6854 0.0005 4.74
C -4.6036 0.0025 6.1372
C -3.3539 0.0003 6.7673
C -2.1908 -0.0 6.0015
C -5.8627 0.0608 6.9632
F -5.7044 -0.5287 8.161
F -6.2381 1.3332 7.199
F -6.8942 -0.5431 6.3471
H 2.4963 -0.0003 5.2601
H 3.2825 -0.0003 3.6845
Au -2.2629 -0.0031 -0.4404
H -3.5648 -0.0036 2.8875
H -5.6625 -0.0076 4.2545
H -3.2959 -0.0078 7.8568
H -1.2076 -0.0039 6.4717
19
Energy=2.541322303848524
C 3.0098 1.0749 1.4986
O 2.3935 -0.1362 1.9413
C 1.1849 0.0 2.546
C -0.0 -0.0 1.7727
S 0.0 0.0 0.0
C -1.2413 0.0638 2.4267
C -1.3074 0.1399 3.8094
C -0.1455 0.1451 4.6015
C 1.1084 0.0689 3.949
Br 2.7575 -0.0046 4.8885
C -0.2486 0.2853 6.0794
O 0.5614 0.7287 6.8236
Cl -1.8292 -0.3229 6.7618
H 3.9403 0.7843 0.9941
H 3.2456 1.7227 2.3582
H 2.3584 1.6076 0.7882
Au 1.5302 -1.6553 -0.5091
H -2.1559 0.0432 1.8322
H -2.2759 0.1871 4.3047
15
Energy=0.9729182416061695
Cl -2.9295 1.6284 1.1384
C -2.5363 -0.0629 1.6594
O -3.3153 -0.9414 1.504
C -1.2477 -0.1327 2.4199
C -1.3291 -0.3358 3.7997
C -0.1702 -0.3429 4.568
C 1.0767 -0.1592 3.9589
C 1.176 0.0 2.565
C -0.0 0.0 1.7755
S 0.0 0.0 0.0
I 3.0688 0.2644 1.6629
Cl 2.4764 -0.1571 4.9903
H -2.3029 -0.4697 4.2743
H -0.2149 -0.4849 5.6481
Au 0.4897 2.2154 -0.4511
19
Energy=-0.017432301927836413
Br 3.2783 1.8707 1.7607
C 2.5216 0.0072 1.9488
C 1.1782 0.0 2.5853
C -0.0 0.0 1.7859
S 0.0 0.0 0.0
C -1.254 -0.072 2.4092
C -1.3597 -0.1344 3.7928
C -0.2213 -0.1021 4.6051
C 1.0396 -0.0272 3.9892
Br 2.6147 0.0485 5.0688
C -0.402 -0.1455 6.1096
F 0.2045 -1.2099 6.6581
F -1.704 -0.2246 6.4381
F 0.0857 0.9527 6.7073
H 2.4836 -0.3722 0.9239
H 3.2819 -0.504 2.5438
Au 1.1741 1.9773 -0.3825
H -2.1513 -0.0655 1.7893
H -2.3422 -0.1901 4.2609
31
Energy=1.1928661386168862
F 5.7818 0.002 -0.8707
C 4.6935 0.0016 -0.0935
C 4.1406 1.2202 0.2964
C 3.0057 1.2149 1.1051
C 2.4398 0.0006 1.5034
C 3.0115 -1.2132 1.1118
C 4.1464 -1.2175 0.3033
N 1.2678 0.0 2.3385
C 0.0 0.0 1.7733
S 0.0 0.0 0.0
N -1.097 -0.0001 2.4617
C -1.0176 -0.002 3.8365
C 0.2236 -0.0036 4.5169
C 1.4718 -0.0025 3.743
O 2.5933 -0.0035 4.2066
C 0.2705 -0.0138 5.9196
C -0.9068 -0.0084 6.6524
C -2.1539 0.0073 5.9865
C -2.2044 -0.0059 4.5965
C -3.4655 0.0061 6.7263
O -4.5025 -0.3411 6.2283
O -3.4266 0.4327 8.0081
H 4.604 2.1506 -0.0347
H 2.5498 2.1521 1.4276
H 2.5599 -2.1507 1.4395
H 4.6143 -2.1475 -0.0226
Au -2.2927 -0.0165 -0.3248
H 1.2482 -0.034 6.404
H -0.8543 -0.0537 7.7433
H -3.1685 -0.0163 4.0884
H -2.5552 0.7982 8.2155
17
Energy=1.570571167301597
O 2.7095 -1.071 1.3036
N 2.5081 -0.1846 2.1178
O 3.3645 0.5455 2.5824
C 1.1356 -0.0 2.6214
C 1.0294 0.2002 3.991
C -0.2145 0.3775 4.6111
C -0.3696 0.5713 6.0759
O -1.389 0.7338 6.6617
Cl 1.1955 0.5433 6.9955
C -1.3508 0.376 3.7737
C -1.2435 0.198 2.3987
C 0.0 0.0 1.7766
S 0.0 0.0 0.0
F -2.5629 0.5415 4.2783
H 1.936 0.2277 4.5921
H -2.1529 0.2126 1.7976
Au 0.714 -2.1334 -0.5296
38
Energy=1.5730059137597328
C 2.5389 3.7494 1.3422
O 2.1657 2.4261 1.6583
C 2.8834 1.4013 1.1563
C 4.0136 1.5296 0.3393
C 4.6728 0.3837 -0.1183
C 4.2255 -0.8924 0.2266
C 3.0984 -1.0234 1.0412
C 2.4275 0.1089 1.4925
N 1.2666 -0.0 2.326
C 0.0 -0.0 1.7723
S 0.0 0.0 0.0
N -1.1036 -0.0094 2.4448
C -1.1039 0.0043 3.8375
O -2.1654 -0.0187 4.4435
C 0.2091 0.0532 4.5244
C 0.4018 0.0893 5.8849
C -0.4699 0.0886 7.002
C -1.8365 0.0526 7.2581
C -1.9913 0.0794 8.6645
C -0.7209 0.13 9.2042
C -0.2215 0.1759 10.6017
O 0.1933 0.1359 8.2213
C 1.4557 0.0732 3.726
O 2.5819 0.1375 4.1771
H 3.5546 3.9822 1.7069
H 1.8172 4.4043 1.8467
H 2.4949 3.9328 0.2543
H 4.3856 2.5143 0.0586
H 5.5534 0.4987 -0.7547
H 4.7492 -1.7797 -0.133
H 2.7195 -2.0047 1.331
Au -2.3063 0.016 -0.2626
H 1.4574 0.1269 6.175
H -2.5921 0.0117 6.4822
H -2.9226 0.0632 9.2261
H 0.3761 1.0859 10.7763
H 0.429 -0.6883 10.8156
H -1.0626 0.1664 11.3072
36
Energy=0.44202071476899374
C -7.2131 -0.6024 -0.2929
C -6.5733 -1.0635 0.9931
C -7.2972 -1.7796 1.9513
C -6.692 -2.2235 3.1282
C -5.3494 -1.9456 3.3478
C -4.576 -1.2087 2.4255
C -3.173 -1.0105 2.7972
N -2.3982 -0.1575 2.233
N -1.0918 -0.0878 2.6346
C 0.0 -0.0 1.7619
S 0.0 0.0 0.0
N 1.1058 -0.0 2.4752
N 0.7718 -0.0575 3.799
C -0.5339 -0.1186 3.9133
C -1.264 -0.1136 5.187
C -2.4727 0.5848 5.3635
C -3.1168 0.5774 6.6016
C -2.5609 -0.1137 7.6822
C -1.3471 -0.7894 7.52
C -0.7021 -0.7915 6.2836
C -5.2169 -0.778 1.238
O -4.5354 -0.0688 0.2693
H -8.27 -0.8972 -0.3331
H -6.7206 -1.0417 -1.1789
H -7.1867 0.4979 -0.3998
H -8.3511 -1.9963 1.7613
H -7.2661 -2.7865 3.8659
H -4.8634 -2.2889 4.2638
H -2.8092 -1.6534 3.6116
Au -2.2868 -0.0524 -0.2979
H -2.9003 1.1523 4.5357
H -4.0528 1.1275 6.7259
H -3.067 -0.1174 8.6504
H -0.9 -1.321 8.3634
H 0.2475 -1.3104 6.1446
H -5.1547 0.2041 -0.4225
22
Energy=-1.6594413118275813
S 0.0 0.0 0.0
C 0.0 0.0 1.8329
C 1.3575 0.0 2.5512
O 1.4428 0.4912 3.6668
N 2.3708 -0.5948 1.8789
C 3.7765 -0.6461 2.319
C 4.32 0.7836 2.4827
C 3.8831 -1.4179 3.6436
C 4.5503 -1.3791 1.2175
Au 1.1741 1.9209 -0.4707
H -0.5801 0.8373 2.2401
H -0.5308 -0.9317 2.0984
H 2.1597 -0.8823 0.9272
H 3.7364 1.3284 3.2368
H 4.257 1.3283 1.5268
H 5.3743 0.7611 2.7991
H 3.5006 -2.4434 3.5218
H 3.2969 -0.9161 4.4244
H 4.9341 -1.4757 3.9669
H 5.6158 -1.4472 1.4811
H 4.4717 -0.8447 0.2564
H 4.1663 -2.4026 1.0795
40
Energy=0.9768740459136853
O -4.6037 -0.383 6.0713
C -3.5946 0.007 6.6313
C -2.2569 0.0084 5.9365
C -1.0217 -0.0107 6.627
C 0.1702 -0.016 5.9196
C 0.155 -0.004 4.5153
C -1.0716 -0.002 3.8118
C -2.275 -0.0039 4.546
N -1.1166 -0.0001 2.4378
C 0.0 -0.0 1.7749
N 1.2543 0.0 2.359
C 1.4162 -0.0028 3.7676
O 2.524 -0.0035 4.2727
C 2.4701 0.001 1.546
S 0.0 0.0 0.0
N -3.5696 0.4971 7.9189
C -4.6202 0.6162 8.84
C -5.9479 0.1384 8.5817
N -6.9244 0.2424 9.4517
C -6.6963 0.8261 10.6582
C -5.4069 1.3383 11.0164
C -4.3697 1.2131 10.0637
C -5.2297 1.9386 12.2932
C -6.2865 2.026 13.1742
C -7.5638 1.5189 12.8204
C -7.7644 0.9318 11.5892
H -0.9917 -0.0611 7.7176
H 1.1368 -0.0394 6.4255
H -3.228 -0.0148 4.0175
H 2.5045 0.8974 0.9095
H 3.3204 0.0006 2.2364
H 2.5048 -0.8942 0.9079
Au -2.296 -0.0192 -0.3055
H -2.689 0.892 8.2258
H -6.1609 -0.3284 7.6196
H -3.371 1.5914 10.3049
H -4.245 2.3288 12.5641
H -6.1432 2.4887 14.1535
H -8.3895 1.5969 13.5315
H -8.7345 0.5327 11.288
34
Energy=1.4565814895598765
O -8.2201 0.384 -0.5475
C -6.953 0.2769 -0.0947
C -6.4883 0.9163 1.0611
C -5.1693 0.7758 1.4837
C -4.2823 -0.0245 0.7469
C -2.8958 -0.2183 1.1535
N -2.443 0.2736 2.2496
N -1.1273 0.1018 2.5633
C 0.0 0.0 1.7549
S 0.0 0.0 0.0
N 1.0729 0.0 2.5226
N 0.6803 0.0984 3.8203
C -0.6323 0.1682 3.8658
C -1.405 0.2736 5.1076
C -0.6879 0.5662 6.2858
C -1.3346 0.6679 7.5122
C -2.7188 0.4756 7.5771
Cl -3.5389 0.6054 9.114
C -3.4492 0.1787 6.4257
C -2.7946 0.0774 5.1977
C -4.747 -0.664 -0.4201
C -6.0637 -0.5263 -0.8491
O -6.5618 -1.1189 -1.9602
H -8.7263 0.9548 0.0458
H -7.1828 1.5405 1.6317
H -4.8119 1.2865 2.3783
H -2.2642 -0.8239 0.4847
Au 2.282 0.4027 -0.2087
H 0.3908 0.7102 6.2155
H -0.7756 0.8974 8.4204
H -4.5269 0.0237 6.4929
H -3.3694 -0.1551 4.3044
H -4.0609 -1.2851 -1.0047
H -5.8654 -1.6326 -2.3894
34
Energy=2.615206260713338
C 8.7634 2.966 6.9867
C 7.2616 2.8618 6.96
C 6.5149 2.9135 8.1498
C 5.1341 2.7929 8.1216
C 4.4201 2.6208 6.9138
C 2.9692 2.5125 7.0031
C 2.0807 3.0077 7.9528
C 0.7968 2.5905 7.5478
C 0.9632 1.8505 6.3783
C -0.0371 1.2623 5.5582
C 0.0204 0.5438 4.3915
C -1.2131 0.2195 3.6706
O -2.3941 0.1921 4.3077
N -1.2294 -0.0316 2.4024
C 0.0 0.0 1.7645
S 0.0 0.0 0.0
N 1.1746 0.0 2.3104
C 1.2712 0.0756 3.6944
O 2.2799 -0.2201 4.3005
O 2.2875 1.8186 6.0729
C 5.1743 2.5866 5.7192
Br 4.3824 2.4431 3.9997
C 6.5689 2.7004 5.7567
H 9.0903 3.851 7.556
H 9.1833 3.035 5.9733
H 9.2087 2.0841 7.4772
H 7.0267 3.0357 9.1075
H 4.5762 2.8022 9.0596
H 2.3354 3.6209 8.8127
H -0.1533 2.8078 8.0319
H -1.033 1.5239 5.9343
H -2.2476 0.1687 5.2631
Au -2.2558 -0.0411 -0.4706
H 7.1188 2.6699 4.8147
28
Energy=0.6202870529870192
C 2.8631 -1.5829 5.0945
C 2.5344 -0.1537 4.6421
C 1.2265 -0.0717 3.8899
C 1.2076 -0.0 2.4967
C 0.0 0.0 1.7803
S 0.0 0.0 0.0
C -1.204 -0.1017 2.4846
C -1.2314 -0.1583 3.887
C 0.0002 -0.1322 4.5901
O 0.0599 -0.2557 5.9425
C -0.0683 0.9358 6.7133
C -2.5501 -0.296 4.5943
O -2.7085 0.0387 5.7515
C -3.7107 -0.8811 3.8063
H 2.9314 -2.2633 4.231
H 3.825 -1.614 5.6305
H 2.0805 -1.9609 5.7684
H 2.5013 0.5044 5.5238
H 3.3393 0.2274 3.9937
H 2.1491 0.0554 1.9456
Au -0.0109 2.2434 -0.5278
H -2.1326 -0.1235 1.9153
H 0.6962 1.6777 6.4219
H 0.0907 0.6467 7.7607
H -1.0746 1.3614 6.6021
H -3.4254 -1.8071 3.2846
H -4.0581 -0.1669 3.0419
H -4.5358 -1.0757 4.5026
31
Energy=0.769456572812912
S 0.0 0.0 0.0
C -0.0 -0.0 1.7358
N -1.0225 0.0515 2.5497
C -0.4793 0.0923 3.8135
C 0.8856 0.0518 3.7152
O 1.2084 -0.0 2.3987
C 1.8823 0.083 4.8131
C 1.1624 0.5013 6.1211
C -0.1932 -0.233 6.2397
C -1.1854 0.1536 5.1273
C 2.0644 0.3723 7.3901
C 3.4336 1.0268 7.1294
C 1.4042 1.1192 8.5638
C 2.2814 -1.0975 7.7898
Au 0.4764 -2.2124 -0.4903
H 2.3563 -0.9092 4.9262
H 2.6913 0.7861 4.5633
H 0.936 1.5788 6.0167
H -0.6501 -0.032 7.2185
H -0.0173 -1.321 6.1915
H -2.0571 -0.52 5.1266
H -1.5805 1.1714 5.2987
H 3.3196 2.0603 6.7631
H 4.0214 1.0655 8.06
H 4.0286 0.4681 6.3917
H 2.044 1.0699 9.459
H 1.2502 2.1828 8.3196
H 0.4286 0.6901 8.8359
H 2.9758 -1.1615 8.6426
H 1.342 -1.5833 8.093
H 2.7175 -1.6868 6.9676
42
Energy=1.844580304608415
F -2.1651 -0.0831 12.0679
C -1.9707 -0.0703 10.7424
C -3.0713 -0.0749 9.8892
C -2.8613 -0.0617 8.5119
C -1.5588 -0.0438 7.9858
N -1.4157 -0.0312 6.5899
C -0.2864 -0.0238 5.8798
C -0.2338 -0.0125 4.496
C 1.0941 -0.0084 3.8458
O 2.135 -0.0138 4.4822
N 1.1015 -0.0 2.4478
C 0.0 -0.0 1.7728
S 0.0 0.0 0.0
N -1.2772 -0.0037 2.3243
C -1.4556 -0.0078 3.7218
O -2.5949 -0.0142 4.1907
C -2.4482 -0.055 1.4905
C -3.0184 1.118 1.0445
C -4.168 1.0814 0.2229
C -4.729 -0.1276 -0.1281
C -4.1699 -1.3538 0.325
C -4.733 -2.6125 -0.023
C -4.1711 -3.7869 0.4281
C -3.0162 -3.7545 1.249
C -2.4441 -2.5521 1.6052
C -3.0029 -1.3262 1.157
C -0.4631 -0.039 8.8645
C -0.6702 -0.0525 10.2428
H -4.0781 -0.0889 10.3095
H -3.7161 -0.0656 7.8314
H -2.2627 -0.0288 6.0025
H 0.6721 -0.0278 6.405
Au 2.3055 -0.0693 -0.2611
H -2.5668 2.07 1.3275
H -4.6067 2.0172 -0.1293
H -5.6179 -0.1607 -0.7629
H -5.6226 -2.6306 -0.6576
H -4.6128 -4.7475 0.1535
H -2.5764 -4.6908 1.5999
H -1.5526 -2.5336 2.2335
H 0.5584 -0.0241 8.4844
H 0.1704 -0.0489 10.9385
36
Energy=1.243193325340267
C 4.9814 2.1346 -0.2073
C 4.2594 0.896 0.2579
C 4.6951 -0.3872 -0.1022
C 4.0214 -1.531 0.3364
C 2.893 -1.4137 1.1456
C 2.4477 -0.1376 1.5
C 3.122 1.0043 1.0696
N 1.2753 -0.0 2.3278
C 0.0 0.0 1.7676
S 0.0 0.0 0.0
N -1.1008 -0.0028 2.4431
C -1.0942 0.002 3.8348
O -2.0761 -0.3085 4.4746
C 0.2031 0.3766 4.4864
C 0.3674 0.7851 5.7737
C -0.5694 1.164 6.7878
C -0.3341 1.3634 8.1445
C -1.5652 1.7574 8.7243
C -2.4478 1.7904 7.6706
O -1.8727 1.4429 6.5168
N -3.8377 2.1685 7.646
O -4.3334 2.4155 8.7384
O -4.3955 2.2197 6.5662
C 1.4629 0.2087 3.7072
O 2.5792 0.2662 4.1791
H 4.3137 2.7866 -0.794
H 5.343 2.7277 0.6485
H 5.8479 1.8843 -0.8358
H 5.5791 -0.4922 -0.7363
H 4.3808 -2.5203 0.0451
H 2.3517 -2.293 1.4979
H 2.7483 1.9856 1.3696
Au -2.3059 0.0032 -0.2711
H 1.4099 0.8641 6.0999
H 0.622 1.2296 8.6457
H -1.7972 1.9961 9.7575
44
Energy=0.36574105907308563
S 0.0 0.0 0.0
C -0.0 0.0 1.7704
N 1.0856 0.0 2.476
C 0.9666 -0.0003 3.8539
C 2.1368 0.0094 4.6393
C 2.0589 0.0009 6.0288
C 0.8019 -0.0393 6.6689
C -0.3596 -0.0255 5.9131
C -0.2892 -0.0052 4.5102
C -1.5187 -0.0002 3.7061
O -2.6601 0.0017 4.1222
N -1.259 0.0017 2.3251
C 3.2978 -0.1198 6.8779
O 3.3696 -1.0214 7.7032
N 4.319 0.7717 6.6693
C 5.6038 0.507 7.3169
C 6.5937 -0.0951 6.3451
C 6.3503 -1.4059 5.8407
C 7.1986 -1.9711 4.9171
C 8.3404 -1.2664 4.4407
C 8.5938 0.0515 4.9452
C 7.6936 0.6069 5.8972
C 9.7322 0.7599 4.4734
C 10.5828 0.1942 3.5466
C 10.3327 -1.109 3.0489
C 9.2362 -1.8217 3.4874
C 4.268 1.9349 5.804
Au 2.2915 -0.0377 -0.3192
H 3.0979 0.0055 4.1235
H 0.764 -0.0888 7.7581
H -1.3467 -0.0398 6.3787
H -2.082 0.0004 1.7282
H 5.9956 1.45 7.7297
H 5.4052 -0.1848 8.1454
H 5.4816 -1.9576 6.2078
H 7.0084 -2.9792 4.5395
H 7.8887 1.615 6.2752
H 9.9241 1.7644 4.86
H 11.4551 0.7492 3.1935
H 11.0144 -1.5478 2.3164
H 9.0412 -2.8279 3.1073
H 3.2343 2.176 5.5356
H 4.85 1.7859 4.8778
H 4.6968 2.8018 6.334
32
Energy=2.404148538964838
Cl 0.8129 0.2953 9.3599
C -0.638 0.3384 8.3838
C -1.88 0.4435 9.0191
C -3.036 0.477 8.2351
C -2.9467 0.4065 6.8482
C -1.6922 0.3007 6.2024
C -0.5251 0.2671 6.9982
C -1.708 0.2337 4.7514
C -0.7379 0.1325 3.7955
N -1.0931 0.0661 2.4441
C 0.0 0.0 1.7533
N 1.1604 -0.0 2.5519
C 0.7568 0.0572 3.8986
O 1.5211 0.0453 4.8423
C 2.5157 -0.0323 2.1335
C 3.2814 -1.1853 2.3542
C 4.6052 -1.2325 1.9072
C 5.1613 -0.1338 1.2438
C 4.3972 1.0192 1.0396
C 3.0769 1.0755 1.4892
S 0.0 0.0 0.0
H -1.9314 0.4974 10.1073
H -4.0128 0.5588 8.7169
H -3.8551 0.4331 6.2425
H 0.4545 0.1859 6.5297
H -2.7091 0.2695 4.3098
H 2.8325 -2.0315 2.8765
H 5.2035 -2.1296 2.0812
H 6.1948 -0.174 0.8924
H 4.8314 1.8808 0.528
H 2.4643 1.963 1.3263
Au 1.7286 -1.474 -0.4748
29
Energy=-0.500410760881994
C -2.4367 -0.0232 4.6731
C -1.1884 -0.0184 3.8368
N -0.0187 -0.0335 4.499
C 1.1034 -0.0248 3.7762
N 1.1547 -0.0 2.4363
C 0.0 0.0 1.7643
C -1.233 -0.0033 2.4424
S 0.0 0.0 0.0
C 2.4133 -0.0775 4.5128
C 3.0476 -1.4957 4.6214
C 4.2851 -1.3765 5.5253
C 3.4798 -2.0116 3.2394
C 2.0502 -2.4812 5.2504
H -2.4433 -0.9102 5.3261
H -3.3479 -0.0199 4.0594
H -2.444 0.8573 5.3349
H -2.1806 0.001 1.9027
Au 2.2905 -0.14 -0.3304
H 3.1296 0.5872 4.0051
H 2.2381 0.3065 5.528
H 4.0083 -1.0332 6.5352
H 4.7922 -2.3497 5.626
H 5.012 -0.6586 5.1118
H 4.2012 -1.3237 2.7684
H 2.6243 -2.112 2.5564
H 3.9633 -2.9976 3.3341
H 2.5273 -3.4619 5.4088
H 1.1716 -2.6347 4.6057
H 1.6853 -2.1144 6.2225
28
Energy=1.6899164117327854
S 0.0 0.0 0.0
C 0.0 0.0 1.7752
N -1.0961 -0.0001 2.4643
C -1.0134 -0.0003 3.8401
C -2.2039 -0.0004 4.5968
C -2.132 -0.0007 5.9824
Cl -3.6069 -0.0008 6.9153
C -0.8984 -0.0009 6.6623
C 0.2734 -0.0008 5.9218
C 0.2293 -0.0005 4.5176
C 1.4736 -0.0003 3.745
O 2.5988 -0.0005 4.2007
N 1.2673 0.0 2.3378
C 2.4383 0.0001 1.5025
C 3.0088 -1.2125 1.1076
C 4.1415 -1.2171 0.2962
C 4.6978 0.0004 -0.1078
Cl 6.1137 0.0005 -1.1259
C 4.1387 1.2178 0.2926
C 3.006 1.2129 1.1041
Au -2.2906 -0.0012 -0.3303
H -3.1623 -0.0003 4.0788
H -0.8821 -0.0012 7.7524
H 1.2509 -0.0009 6.4075
H 2.5581 -2.1505 1.4351
H 4.5966 -2.1549 -0.0238
H 4.5915 2.1557 -0.0303
H 2.553 2.1509 1.4287
44
Energy=2.004916493285851
C -5.1671 0.0464 8.7108
C -3.6569 -0.1918 8.8621
C -3.0841 0.898 9.7933
C -3.4457 -1.5803 9.5025
C -2.9233 -0.1407 7.515
C -1.5289 -0.3363 7.4674
C -0.8255 -0.3016 6.2713
C -1.496 -0.0702 5.0532
C -2.8838 0.132 5.0859
C -3.5768 0.0969 6.2982
C -0.6947 -0.0325 3.8299
N 0.6377 -0.0439 3.8087
N 1.0599 0.0 2.5297
C -0.0 -0.0 1.737
S 0.0 0.0 0.0
N -1.143 -0.04 2.5324
N -2.4564 0.0483 2.0948
C -2.8929 -0.9244 1.3786
C -2.2923 -2.216 1.0019
C -1.3193 -2.8902 1.7651
C -0.8254 -4.1179 1.3299
C -1.2762 -4.6929 0.1381
C -2.2535 -4.029 -0.6075
Br -2.893 -4.8034 -2.2243
C -2.7726 -2.8091 -0.1791
H -5.3836 1.036 8.2801
H -5.6511 0.0009 9.6985
H -5.6395 -0.7171 8.0738
H -3.5967 0.8767 10.7686
H -3.2208 1.899 9.3553
H -2.0089 0.7556 9.9766
H -3.9628 -1.637 10.474
H -3.8453 -2.3757 8.8542
H -2.3804 -1.7922 9.6769
H -0.9753 -0.5209 8.3903
H 0.2549 -0.4488 6.2511
H -3.4243 0.3337 4.1621
H -4.6533 0.2628 6.2766
Au -0.5709 2.1943 -0.4672
H -3.9031 -0.7467 0.9863
H -0.9544 -2.472 2.701
H -0.0718 -4.6373 1.9253
H -0.8796 -5.6491 -0.2057
H -3.5385 -2.3053 -0.7709
46
Energy=1.7564026485929334
F 2.5205 2.3686 1.7736
C 3.0523 1.2594 1.256
C 4.1932 1.34 0.4658
C 4.7307 0.1659 -0.0683
C 4.1333 -1.0712 0.1923
C 2.9913 -1.1364 0.9916
C 2.437 0.0314 1.5202
N 1.265 0.0 2.3381
C -0.0 0.0 1.776
S 0.0 0.0 0.0
N -1.1029 -0.0008 2.4456
C -1.0984 0.0187 3.8432
O -2.1502 -0.0068 4.4611
C 0.2261 0.0813 4.5251
C 0.19 0.1375 5.9097
C 1.1642 0.2098 6.9106
C 2.5565 0.2555 7.0269
C 2.8821 0.3199 8.3887
C 1.6601 0.3199 9.0813
O 0.6431 0.2493 8.2205
N 1.3642 0.3961 10.3972
C 0.003 0.1845 10.8906
C -0.3283 1.1736 12.0075
C 0.7278 1.1282 13.1149
C 2.1237 1.3593 12.5305
C 2.4223 0.3725 11.4005
C 1.4517 0.0789 3.7478
O 2.5949 0.1275 4.1762
H 4.641 2.3177 0.2808
H 5.6256 0.221 -0.692
H 4.5586 -1.9859 -0.2248
H 2.5068 -2.0891 1.2107
Au -2.3095 0.0444 -0.2399
H -0.8353 0.1231 6.2961
H 3.223 0.2373 6.1714
H 3.8768 0.3578 8.8212
H -0.6925 0.2848 10.0503
H -0.0839 -0.8529 11.2719
H -1.3283 0.9412 12.407
H -0.3768 2.1901 11.5809
H 0.5074 1.8767 13.8922
H 0.6968 0.1403 13.6101
H 2.1923 2.3857 12.1311
H 2.8985 1.26 13.3076
H 2.517 -0.6531 11.8106
H 3.3766 0.6205 10.9203
18
Energy=3.5050038720854015
S 0.0 0.0 0.0
C 0.0 -0.0 1.7374
N -1.0282 -0.0 2.511
C -0.6875 -0.0 3.8778
O -1.4877 0.0 4.7834
C 0.81 -0.0001 4.0756
C 1.3694 -0.0002 5.3058
C 2.765 -0.0002 5.6785
C 3.8941 0.0007 4.8817
O 5.0075 0.0002 5.6415
C 4.6226 -0.001 6.9481
C 3.265 -0.0013 7.0362
S 1.6227 0.0 2.5131
Au -2.2994 -0.0003 -0.3069
H 0.639 -0.0003 6.122
H 4.0483 0.0017 3.8067
H 5.4235 -0.0015 7.6819
H 2.666 -0.0022 7.9441
25
Energy=0.041495198968508805
Cl 1.4346 2.1607 6.3404
C 2.187 0.5264 6.2665
C 2.3169 0.0128 4.8322
O 3.4004 -0.3593 4.444
C 1.0855 -0.0286 3.9764
C -0.1781 -0.1148 4.5792
C -1.333 -0.1672 3.8039
C -1.2464 -0.0831 2.4148
C 0.0 -0.0 1.7752
C 1.1668 -0.0 2.5703
O 2.3899 0.1828 1.9635
C 3.1743 -0.8681 1.569
F 4.4371 -0.5886 1.8477
F 2.8178 -2.0069 2.1591
F 3.0888 -1.0497 0.2455
S 0.0 0.0 0.0
C -2.6824 -0.3237 4.4608
F -3.6347 0.3553 3.8019
F -2.6701 0.1139 5.731
F -3.0638 -1.6134 4.4891
H 3.1979 0.5896 6.684
H 1.5804 -0.1536 6.8818
H -0.2714 -0.1213 5.6632
H -2.1513 -0.065 1.8063
Au 1.3172 1.8176 -0.5317
18
Energy=2.645905468162938
S 0.0 0.0 0.0
C 0.0 0.0 1.7499
N -1.1126 -0.0004 2.3905
C -0.9448 -0.0006 3.7862
O -1.873 -0.0007 4.5667
C 0.5106 -0.0005 4.1766
C 1.0943 -0.0011 5.4086
C 0.5531 -0.0014 6.7419
C -0.7411 0.0 7.2521
C -0.7774 -0.0007 8.6686
C 0.4758 -0.0027 9.2431
S 1.7216 -0.0037 8.06
S 1.5018 0.0 2.7019
Au 2.2491 0.006 -0.5112
H 2.1905 -0.0015 5.393
H -1.6083 0.0016 6.5966
H -1.7001 0.0003 9.2501
H 0.7259 -0.0038 10.3031
28
Energy=-0.5730397718047094
C -3.8379 1.39 6.0549
O -2.6439 1.3032 5.2745
C -2.3431 0.0843 4.8048
O -2.9631 -0.9141 5.0712
C -1.0957 0.1048 3.9576
C 0.1533 0.1046 4.6111
C 0.2541 0.0752 6.1184
C 0.1157 -1.3463 6.6862
C 1.3119 0.0598 3.8253
C 1.2425 -0.0 2.4377
C -0.0 0.0 1.787
C -1.1821 0.0703 2.5567
C -2.5202 0.061 1.8567
F -2.9719 -1.2202 1.7069
F -3.4642 0.7328 2.5751
S 0.0 0.0 0.0
H -3.7769 0.7352 6.9369
H -4.7075 1.089 5.4524
H -3.9273 2.4394 6.3597
H 1.2255 0.5 6.4178
H -0.5182 0.7278 6.5531
H -0.8548 -1.7866 6.4141
H 0.1952 -1.3372 7.7847
H 0.9066 -2.0036 6.292
H 2.2882 0.0603 4.3172
H 2.1515 -0.0534 1.8363
H -2.4539 0.5179 0.859
Au -0.7078 -2.1397 -0.4997
16
Energy=-0.25462941403866984
C -1.2423 -0.2458 5.2552
C -0.6318 -0.1423 3.9054
C -1.1342 -0.0917 2.6403
C -0.0 -0.0 1.7497
S 0.0 0.0 0.0
C 1.123 -0.0 2.555
C 2.5705 0.095 2.2558
O 0.7418 -0.0906 3.8529
H -0.9626 0.6128 5.8883
H -2.3372 -0.2724 5.1703
H -0.9113 -1.16 5.7761
H -2.1808 -0.1182 2.3484
Au -0.3693 2.2136 -0.5599
H 3.1221 -0.7666 2.6667
H 2.7119 0.1239 1.1675
H 3.0071 1.0074 2.6965
36
Energy=1.6803647839107834
C 4.6709 2.5392 3.3913
N 3.3339 2.0312 3.1468
C 3.1668 1.3895 1.847
C 2.5548 -0.0196 1.9164
N 1.2106 -0.0 2.4939
C -0.0 -0.0 1.7354
S 0.0 0.0 0.0
N -1.0821 0.0282 2.4975
C -0.6139 0.0604 3.7739
C 0.7911 0.0458 3.7972
N 1.185 0.1181 5.0932
C 2.4909 0.1288 5.7101
N 0.0723 0.157 5.9077
C -1.0119 0.131 5.1464
C -2.3853 0.1776 5.7285
C 3.4553 -1.0469 2.5959
C 2.3096 3.0195 3.4445
H 4.9474 3.3883 2.7265
H 4.7518 2.8935 4.4315
H 5.4153 1.7406 3.2516
H 4.1459 1.2933 1.3503
H 2.54 2.0046 1.1743
H 2.3971 -0.3365 0.8761
Au 0.1316 -2.2588 -0.5425
H 3.1726 0.7217 5.0856
H 2.8903 -0.8912 5.8421
H 2.3798 0.5932 6.6976
H -2.3283 0.2393 6.8238
H -2.962 -0.7199 5.4517
H -2.9446 1.0488 5.3505
H 3.7359 -0.741 3.6107
H 2.956 -2.0258 2.6475
H 4.3817 -1.1652 2.0136
H 2.4109 3.9397 2.8271
H 1.3088 2.603 3.2697
H 2.366 3.3139 4.5044
54
Energy=2.122026799800646
C 6.4852 -2.177 -0.3756
O 6.1245 -0.9176 0.1486
C 4.9202 -0.7756 0.746
C 4.623 0.5127 1.2379
C 3.4042 0.7612 1.8631
C 2.4563 -0.2667 1.9906
C 2.7638 -1.5458 1.5358
C 3.9859 -1.8084 0.9083
N 1.1651 0.0 2.5461
C -0.0 0.0 1.7833
S 0.0 0.0 0.0
N -1.1849 -0.0301 2.2728
C -1.4079 -0.0654 3.6482
O -2.5176 -0.2929 4.0937
C -0.2355 0.256 4.5326
C -0.5626 0.508 5.8502
C 0.1012 0.8643 7.0726
C -0.7406 1.0705 8.197
C -0.2652 1.4298 9.445
C -1.2112 1.6083 10.6115
C -0.6245 2.5574 11.6512
C 0.782 2.1049 12.0186
N 1.6389 2.0192 10.8455
C 3.073 2.0765 11.0877
C 3.834 2.4963 9.8379
C 3.5046 1.5424 8.6946
C 2.0091 1.399 8.5166
C 1.491 1.0392 7.284
C 1.1382 1.6171 9.6268
C 1.1078 0.227 3.9553
O 2.1659 0.3434 4.5526
H 6.5279 -2.9498 0.4122
H 7.4841 -2.0583 -0.8147
H 5.7825 -2.5075 -1.1612
H 5.3758 1.2953 1.1296
H 3.1756 1.7523 2.2561
H 2.0246 -2.3413 1.6412
H 4.1917 -2.8153 0.5481
Au 1.9865 0.9524 -0.7127
H -1.6476 0.4139 5.9781
H -1.8192 0.9408 8.0709
H -2.1859 1.9716 10.2513
H -1.4036 0.6279 11.0853
H -1.2487 2.5902 12.5573
H -0.5782 3.5816 11.2444
H 1.2443 2.8164 12.7209
H 0.7392 1.1268 12.5419
H 3.2468 2.7944 11.9049
H 3.4464 1.0941 11.4449
H 4.914 2.5051 10.0512
H 3.5424 3.5253 9.5679
H 3.9461 0.552 8.911
H 3.9597 1.8803 7.7515
H 2.1654 0.8757 6.4467
31
Energy=0.6620759957346635
C -0.7888 3.0848 2.2014
C -2.1262 3.1056 2.86
N -2.5278 4.2093 3.5653
C -3.8247 4.0619 4.0285
C -4.2778 2.7927 3.5871
C -3.1811 2.1847 2.8556
C -3.287 0.9029 2.209
N -2.4122 -0.0117 1.9385
N -1.1534 0.1148 2.5147
C 0.0 -0.0 1.7647
S 0.0 0.0 0.0
N 1.1996 0.0 2.2988
N 1.3443 0.1039 3.6366
C 0.2958 0.1262 4.407
C -1.0839 0.0915 3.9474
O -2.0786 0.0882 4.64
C -5.5727 2.3737 3.9313
C -6.379 3.231 4.6762
C -5.9108 4.4918 5.0985
C -4.6239 4.9242 4.7843
H -0.8163 2.5233 1.2584
H -0.0238 2.6167 2.8424
H -0.4511 4.1083 1.9775
H -1.9613 5.0399 3.6808
H -4.2939 0.6349 1.8612
Au -2.0153 -1.0831 -0.4462
H 0.4483 0.181 5.4893
H -5.9405 1.39 3.632
H -7.3899 2.9192 4.9478
H -6.565 5.1381 5.6878
H -4.2551 5.8965 5.1186
22
Energy=2.482761929231805
C -4.6757 0.19 5.0777
C -3.6199 0.1481 3.9932
O -2.3462 0.1714 4.6277
C -1.2286 0.1318 3.8833
C -1.2138 0.0748 2.4857
C -0.0 -0.0 1.7824
S 0.0 0.0 0.0
C 1.2092 0.0 2.4821
C 1.2126 0.0986 3.882
C 0.0019 0.1429 4.5856
Cl -0.0544 0.1396 6.3179
C 2.5625 0.114 4.5256
O 3.4375 -0.6556 4.296
Cl 2.8426 1.5302 5.5964
H -4.5761 -0.677 5.7478
H -4.5748 1.1051 5.68
H -5.6804 0.1739 4.6288
H -3.7127 1.015 3.3138
H -3.713 -0.7678 3.3812
H -2.1431 0.0738 1.9195
Au -0.1798 -2.2413 -0.5027
H 2.1546 -0.0673 1.944
36
Energy=0.5797783610164764
Cl -2.2534 -3.7229 -2.3473
C -3.554 -2.7536 -1.7047
C -4.8735 -3.2092 -1.8396
C -5.9185 -2.4443 -1.3207
C -5.6034 -1.2483 -0.6843
C -4.2931 -0.7926 -0.5427
C -3.2462 -1.5506 -1.0621
C -4.179 0.5628 0.1458
C -5.4543 0.7292 0.9999
S -6.7614 -0.0765 0.015
O -7.1776 0.8695 -1.0313
O -7.7611 -0.7454 0.8506
N -2.9374 0.7741 0.879
C -2.5836 -0.1532 1.8309
O -3.3274 -1.0706 2.1439
C -1.2319 -0.0301 2.4815
C -1.1809 -0.1148 3.8762
C 0.0469 -0.1016 4.5341
C 1.1996 -0.0366 3.7497
N 1.1751 -0.0 2.4178
C -0.0 -0.0 1.7785
S 0.0 0.0 0.0
C -2.3576 2.1062 0.7775
H -5.0673 -4.159 -2.3391
H -6.9551 -2.7787 -1.3954
H -2.2081 -1.2364 -0.9516
H -4.1995 1.326 -0.6484
H -5.3667 0.1657 1.9364
H -5.7578 1.77 1.1668
H -2.1187 -0.1973 4.4299
H 0.1124 -0.1521 5.622
H 2.1918 -0.0233 4.2137
Au 2.2763 -0.1585 -0.3724
H -3.1115 2.8698 1.0361
H -1.5188 2.2092 1.4741
H -1.9873 2.3 -0.2401
19
Energy=-1.0799354176923137
S 0.0 0.0 0.0
C 0.0 0.0 1.7535
N 1.0353 0.0 2.5762
N 0.5635 -0.0066 3.8593
C -0.7431 -0.0174 3.8089
N -1.158 0.0234 2.4961
N -2.4695 -0.1134 2.0303
C -2.9987 0.9672 1.569
C -2.5235 2.3308 1.4842
C -3.2653 3.3592 0.9156
C -2.6229 4.6187 0.9849
C -1.3985 4.5395 1.6132
S -1.0114 2.9421 2.1139
Au 2.2854 0.3304 -0.2053
H -1.4382 -0.0374 4.6458
H -4.0154 0.8234 1.1795
H -4.2455 3.1929 0.4656
H -3.0408 5.5453 0.5912
H -0.6955 5.3495 1.8051
21
Energy=1.254642696863226
F 3.0018 0.4468 5.2286
C 2.343 -0.6476 4.7904
C 1.1092 -0.2973 3.9543
C -0.1662 -0.421 4.5646
C -1.3298 -0.3414 3.7876
C -1.2436 -0.1664 2.4182
C 0.0 -0.0 1.7917
C 1.1837 -0.0 2.5741
C 2.507 0.3496 1.8811
F 3.4648 0.7093 2.7365
F 2.9665 -0.6651 1.1411
F 2.3388 1.4115 1.07
S 0.0 0.0 0.0
C -0.2859 -0.5526 6.0475
O 0.5173 -0.2058 6.8539
Cl -1.8239 -1.3205 6.6103
F 3.1925 -1.4107 4.0499
H 2.0645 -1.2448 5.6659
H -2.3018 -0.441 4.2679
H -2.1438 -0.1577 1.8029
Au -0.4522 2.2067 -0.4803
31
Energy=1.1961724490602155
C 1.6868 0.1972 5.0014
C 0.7678 0.0781 3.834
C -0.6205 0.0907 3.7938
N -1.0734 0.0466 2.5147
C 0.0 -0.0 1.7422
N 1.1639 0.0 2.5128
C 2.5246 -0.0004 2.0064
C 3.1603 -1.4019 1.8544
S 4.8054 -1.141 1.0103
O 4.5711 -0.2851 -0.1642
O 5.4331 -2.4633 0.863
C 5.844 -0.1974 2.1496
C 2.3939 -2.2971 0.8765
C 3.405 -2.1291 3.174
S 0.0 0.0 0.0
H 1.1047 0.4853 5.8877
H 2.2086 -0.7425 5.2379
H 2.4565 0.9713 4.8434
H -1.2969 0.1443 4.647
H 2.5194 0.4858 1.0226
H 3.1313 0.6136 2.6877
H 6.0139 -0.7718 3.0677
H 6.7862 -0.0736 1.5987
H 5.3947 0.7828 2.3505
H 2.286 -1.814 -0.1023
H 1.3895 -2.4973 1.2776
H 2.9207 -3.2529 0.7515
H 3.9928 -3.0402 2.996
H 3.9365 -1.5047 3.9068
H 2.4399 -2.4231 3.6133
Au 0.1808 2.2549 -0.5084
31
Energy=-2.110711519272505
C -4.1826 2.8556 -1.3923
C -3.6884 1.6912 -0.5404
N -4.2818 1.6852 0.794
C -3.7771 2.7311 1.6919
C -3.0008 2.1479 2.8845
N -2.1864 1.0213 2.445
C -2.9301 -0.107 1.882
C -4.3243 0.3879 1.4372
C -0.8313 1.1749 2.3855
O -0.2731 2.2099 2.7327
C 0.0 0.0 1.8548
S 0.0 0.0 0.0
C 1.4023 0.0 2.4463
H -3.9004 3.8266 -0.9545
H -3.7454 2.8098 -2.4027
H -5.2802 2.8332 -1.4782
H -2.5779 1.6988 -0.5062
H -3.9693 0.7451 -1.0316
H -3.0986 3.3897 1.1273
H -4.5972 3.3701 2.0721
H -2.3321 2.898 3.3206
H -3.6898 1.8047 3.6742
H -2.3913 -0.4871 1.0038
H -3.0303 -0.9339 2.6117
H -4.765 -0.352 0.7517
H -5.001 0.4425 2.3062
H -0.5036 -0.9533 2.0822
Au 0.5748 2.1886 -0.4368
H 1.9052 0.9517 2.2282
H 1.3563 -0.1127 3.5418
H 1.9931 -0.8252 2.025
28
Energy=2.139565090169571
C 0.7869 -0.0003 10.7102
C -0.5118 -0.001 9.96
C -1.7457 -0.0017 10.6089
C -2.8865 -0.002 9.7884
O -4.0994 -0.0027 10.3444
N -2.8095 -0.0017 8.4621
C -1.5739 -0.0012 7.9487
N -1.5252 -0.001 6.5541
C -0.3964 -0.0008 5.8232
C -0.3063 -0.0004 4.45
C -1.4155 -0.0002 3.5389
O -2.6605 -0.0002 4.0547
N -1.293 0.0 2.2476
C 0.0 0.0 1.7644
S 0.0 0.0 0.0
N 1.1097 -0.0 2.445
C 1.0609 -0.0002 3.8363
O 2.069 -0.0001 4.5214
N -0.431 -0.0009 8.6162
H 0.6357 -0.0018 11.7977
H 1.3786 0.8843 10.4266
H 1.3811 -0.8824 10.4243
H -1.8408 -0.0019 11.6937
H -4.7452 -0.0029 9.6182
H -2.424 -0.0009 6.0752
H 0.5362 -0.0008 6.3945
H -3.2708 0.0 3.2958
Au 2.2856 0.0002 -0.3406
17
Energy=-0.7402461100117279
Cl -2.7461 0.0323 1.7285
C -1.1993 0.0771 2.5213
C -1.1903 0.1663 3.9137
C 0.0203 0.1908 4.5994
C 1.218 0.0996 3.8925
C 1.2194 -0.0 2.494
C 0.0 -0.0 1.7721
S 0.0 0.0 0.0
Br 2.8835 -0.1396 1.6067
O 2.4251 0.164 4.5717
C 2.8332 -0.9231 5.2716
F 2.8117 -2.0371 4.5343
F 2.0574 -1.1481 6.3477
F 4.0682 -0.6965 5.6873
H -2.136 0.2275 4.4523
H 0.0498 0.2798 5.6852
Au -0.8095 -2.1102 -0.4644
37
Energy=1.9770182235492002
S 0.0 0.0 0.0
C 0.0 -0.0 1.785
N 1.1914 -0.0 2.3961
C 1.2566 0.082 3.7234
C 0.127 0.1951 4.5351
C -1.1157 0.1849 3.9105
C -1.2156 0.0572 2.5184
C -2.6274 0.0339 1.9792
O -3.5303 0.566 2.6053
N -2.8122 -0.6622 0.8136
C -3.9847 -0.8199 0.0626
C -5.2318 -0.2978 0.4392
C -6.3398 -0.5004 -0.3838
C -6.2542 -1.2207 -1.5868
C -4.994 -1.7411 -1.9477
C -3.8838 -1.5441 -1.1433
C -7.4313 -1.4564 -2.4468
N -7.2989 -2.278 -3.4344
N -8.3817 -2.5261 -4.2261
C -9.5217 -1.7581 -4.3613
O -10.3839 -2.0327 -5.1709
C -9.5312 -0.5473 -3.4519
C -8.7663 -0.8074 -2.1539
Au 2.2647 -0.3309 -0.3585
H 2.2617 0.0628 4.1587
H 0.2214 0.2818 5.6186
H -2.045 0.2738 4.4761
H -1.9843 -1.0898 0.4048
H -5.3189 0.2571 1.3691
H -7.2953 -0.0878 -0.0569
H -4.9092 -2.3022 -2.8785
H -2.9136 -1.9475 -1.4464
H -8.2484 -3.2656 -4.9093
H -10.5753 -0.2563 -3.2774
H -9.0539 0.2749 -4.0153
H -8.6435 0.127 -1.5925
H -9.3442 -1.4911 -1.5036
36
Energy=3.95681118187757
C 1.3302 2.5748 6.4867
O 0.1533 1.9514 6.0212
C -0.5213 1.1179 6.8329
C -0.357 1.096 8.2259
C -1.1772 0.2927 9.0202
C -2.1837 -0.4868 8.4433
C -2.339 -0.4765 7.0596
C -1.4902 0.2747 6.2236
C -1.6704 0.1762 4.782
C -0.7385 0.1397 3.7909
N -1.0961 0.0567 2.4428
C -0.0 0.0 1.7544
N 1.1611 -0.0 2.5505
C 0.7521 0.0364 3.9044
O 1.4986 -0.0508 4.8539
C 2.5154 -0.0435 2.1379
C 3.3148 -1.1365 2.4988
C 4.6451 -1.1905 2.075
C 5.1772 -0.1607 1.2927
C 4.3797 0.9349 0.9472
C 3.0535 1.0013 1.3759
S 0.0 0.0 0.0
H 1.776 3.0809 5.6208
H 1.1138 3.3251 7.268
H 2.0446 1.83 6.873
H 0.3996 1.7223 8.697
H -1.0353 0.2918 10.1037
H -2.8376 -1.0995 9.0668
H -3.1122 -1.0919 6.5925
H -2.7006 0.0576 4.4283
H 2.8865 -1.9312 3.1103
H 5.2678 -2.0425 2.3574
H 6.216 -0.2086 0.9584
H 4.7931 1.745 0.3422
H 2.4176 1.8451 1.1059
Au 1.6547 -1.5564 -0.4704
18
Energy=-0.13541034621820833
O -1.4994 0.5139 6.4492
N -0.6997 -0.2844 5.9897
O -0.1888 -1.2087 6.5906
C -0.3841 -0.1308 4.5542
C -1.4842 0.0247 3.7147
C -1.2926 0.0385 2.3443
C 0.0 0.0 1.7889
C 1.1283 0.0 2.6523
C 0.923 -0.1521 4.0461
Br 2.3718 -0.3763 5.2558
C 2.5604 0.1402 2.132
F 3.2573 1.0231 2.8598
F 3.2065 -1.0426 2.184
F 2.6323 0.5721 0.8719
S 0.0 0.0 0.0
H -2.4814 0.0789 4.1521
H -2.1492 0.0569 1.6698
Au 1.1602 -1.9241 -0.5153
19
Energy=1.278342802064601
Cl -4.5454 -0.545 8.3021
C -3.3629 -0.428 7.0262
C -3.777 -0.3574 5.6931
C -2.8185 -0.2641 4.6919
C -1.4354 -0.238 4.9688
C -1.0606 -0.3119 6.3255
C -2.0072 -0.4058 7.3486
Cl 0.6184 -0.2922 6.8242
C -0.5148 -0.1372 3.8278
C 0.8582 -0.0745 3.7316