39
Energy=1.8874167888922844
S 0.0 0.0 0.0
C 0.0 -0.0 1.7373
N 1.0565 -0.0 2.5356
C 0.5994 -0.0143 3.8227
C -0.7983 0.0033 3.8168
N -1.1646 -0.02 2.5032
N -2.4749 0.11 2.0624
C -2.9459 -0.8503 1.3482
C -2.4119 -2.1616 0.9643
C -2.9908 -2.7803 -0.1613
C -2.5482 -4.022 -0.6017
C -1.53 -4.6886 0.0864
C -0.9491 -4.0846 1.2255
C -1.388 -2.8375 1.6555
O 0.0475 -4.702 1.9213
C 0.7032 -5.7357 1.2036
C -0.3219 -6.6461 0.5537
O -1.1309 -5.9082 -0.3555
C 1.5101 -0.0416 4.9734
C 1.0304 -0.0633 6.2952
C 1.9155 -0.087 7.3729
C 3.2961 -0.0908 7.1504
C 3.7825 -0.0704 5.8391
C 2.9001 -0.0461 4.7598
Au -0.351 2.2398 -0.4828
H -1.5446 0.0205 4.6055
H -3.9503 -0.6327 0.96
H -3.7913 -2.2707 -0.7019
H -2.9845 -4.5098 -1.4749
H -0.9075 -2.4248 2.5402
H 1.3208 -6.2866 1.9265
H 1.3637 -5.2983 0.4322
H -0.9611 -7.1063 1.329
H 0.1613 -7.4443 -0.027
H -0.0453 -0.0622 6.4857
H 1.5252 -0.1029 8.3936
H 3.9889 -0.1094 7.9952
H 4.8601 -0.0729 5.6565
H 3.2643 -0.0292 3.7316
32
Energy=-0.22715019182340737
Cl -3.8012 -4.9679 0.916
C -3.2132 -3.975 2.2304
C -1.8376 -3.8024 2.4041
C -1.3878 -3.0046 3.4557
C -2.2997 -2.3749 4.309
C -3.6861 -2.5573 4.1465
C -4.1287 -3.3724 3.0966
C -4.6554 -1.885 5.0818
O -1.8362 -1.5784 5.3253
C -1.6157 -0.1856 5.0077
C -0.7265 -0.0324 3.809
N 0.5848 -0.0212 3.8425
N 1.0489 0.0 2.5609
C -0.0 0.0 1.7546
N -1.1553 -0.0092 2.4919
C -2.5018 -0.0686 1.9551
S 0.0 0.0 0.0
C -1.0124 0.4472 6.2477
H -1.1343 -4.2849 1.7247
H -0.3215 -2.8436 3.6212
H -5.1969 -3.5393 2.9473
H -4.7868 -0.818 4.8298
H -5.6469 -2.3572 5.0347
H -4.2883 -1.9233 6.1175
H -2.5958 0.2764 4.7883
H -2.7244 -1.0765 1.5745
H -2.6031 0.6596 1.1375
H -3.2238 0.1772 2.7418
Au 2.309 0.1284 -0.2066
H -1.6551 0.2417 7.1152
H -0.9149 1.534 6.115
H -0.0131 0.0277 6.4235
23
Energy=0.7375124906377993
C 4.6242 0.9281 1.6715
O 3.2816 0.9613 2.1634
C 2.5523 -0.1373 1.9625
O 2.9634 -1.1203 1.3909
C 1.1816 -0.0 2.5563
C 1.0601 0.1082 3.9437
F 2.1697 0.0857 4.6916
C -0.1645 0.2337 4.5863
C -1.3181 0.2431 3.8027
C -1.2509 0.1166 2.4145
C -0.0 -0.0 1.7853
S 0.0 0.0 0.0
O -2.4968 0.3541 4.5194
C -3.678 0.6448 3.9245
F -4.5766 0.8024 4.8839
F -4.0941 -0.3377 3.1116
F -3.6167 1.7675 3.1996
H 5.1857 0.1052 2.1378
H 4.6309 0.7862 0.5808
H 5.0676 1.895 1.936
H -0.22 0.3209 5.6707
H -2.1457 0.0967 1.7974
Au 0.8993 -2.077 -0.4706
16
Energy=-0.015346585727459483
Cl 0.2595 0.3128 6.3177
C 0.2009 0.1903 4.5841
C -1.0524 0.1743 3.9708
C -1.1535 0.0888 2.5811
Br -2.8936 0.0667 1.8309
C 0.0 0.0 1.7723
C 1.2469 0.0 2.4235
C 1.3708 0.1054 3.8078
C 2.7482 0.1097 4.4361
F 2.9116 -0.9209 5.2798
F 3.7101 0.0151 3.5025
F 2.9745 1.2377 5.1263
S 0.0 0.0 0.0
H -1.9497 0.237 4.5853
H 2.146 -0.085 1.8144
Au -1.0471 -1.9959 -0.5083
17
Energy=0.4031136378261429
S 0.0 0.0 0.0
C 0.0 -0.0 1.7476
C -1.1111 0.0881 2.5869
N -0.6253 0.1361 3.8452
N 0.7226 0.0832 3.9029
C 1.126 -0.0 2.6392
C 2.5463 -0.1234 2.2612
C 3.6274 0.2736 3.2376
C 3.4099 -1.1781 2.9346
Au 0.3351 -2.2192 -0.5556
H -2.1734 0.1207 2.3574
H -1.1507 0.2239 4.7066
H 2.7236 0.052 1.1976
H 4.5169 0.7656 2.8354
H 3.287 0.6452 4.2072
H 4.1417 -1.7046 2.3158
H 2.9224 -1.7896 3.6985
51
Energy=1.6414449348498144
C 4.2746 0.0068 8.9774
C 2.921 0.0192 8.3519
C 2.5393 0.0137 7.0385
C 1.0948 0.0064 6.9877
C 0.163 0.0031 5.9101
C 0.2275 0.0012 4.5338
C -1.1016 0.0006 3.8355
O -2.1556 0.0006 4.4503
N -1.1061 -0.0 2.4422
C -0.0 0.0 1.7747
S 0.0 0.0 0.0
N 1.2641 0.0 2.3338
C 1.4594 -0.0003 3.7439
O 2.6029 -0.0014 4.1622
C 2.4374 0.0007 1.5011
C 3.0098 1.2111 1.1045
C 4.1428 1.2066 0.2932
C 4.7254 0.0024 -0.1316
C 5.9293 0.0034 -1.0383
C 4.142 -1.2028 0.2895
C 3.009 -1.209 1.1008
C 0.6451 0.0057 8.3298
C -0.7304 0.014 8.9051
N 1.7515 0.0131 9.1327
C 1.7306 0.0127 10.5575
C 1.9784 1.1964 11.2608
C 1.9667 1.2004 12.6556
C 1.6988 0.0121 13.3419
Cl 1.6783 0.0118 15.0854
C 1.4475 -1.1761 12.6491
C 1.4687 -1.1716 11.2545
H 4.4656 0.9088 9.5827
H 4.4115 -0.8615 9.6439
H 5.0387 -0.0418 8.1902
H 3.1879 0.0095 6.171
H -0.8845 0.001 6.2289
Au -2.3085 -0.0001 -0.252
H 2.5596 2.1491 1.4337
H 4.5859 2.1571 -0.0153
H 6.5532 -0.8894 -0.8821
H 5.6219 0.0068 -2.0987
H 6.5553 0.8939 -0.8772
H 4.5845 -2.1525 -0.0219
H 2.5582 -2.1477 1.4272
H -1.4846 0.1386 8.1191
H -0.8527 0.8345 9.6307
H -0.9547 -0.9232 9.4413
H 2.1761 2.1161 10.7072
H 2.1582 2.1176 13.2136
H 1.2435 -2.0936 13.2021
H 1.2861 -2.0917 10.6964
38
Energy=4.018764885193904
S 0.0 0.0 0.0
C 0.0 -0.0 1.7409
N -1.0422 0.0014 2.505
C -0.727 0.0085 3.8706
O -1.5737 0.0363 4.7449
C 0.7551 -0.0153 4.1035
S 1.5896 0.0 2.533
C 1.4616 -0.0648 5.2669
C 1.0464 -0.0824 6.6443
C -0.2098 0.1033 7.2263
N -0.0294 0.103 8.5688
N 1.2689 -0.0785 8.9154
C 1.9378 -0.2011 7.7786
C 3.3959 -0.4126 7.7939
C 4.0192 -1.3058 6.9041
C 5.4022 -1.4958 6.9418
C 6.1815 -0.8044 7.8725
C 5.5687 0.0732 8.7731
C 4.1887 0.2676 8.7356
C -1.0179 0.254 9.5767
C -0.6196 0.3743 10.9145
C -1.5865 0.5303 11.9074
C -2.9448 0.5683 11.5796
C -3.3324 0.4437 10.2427
C -2.3775 0.2835 9.2381
Au -2.3011 0.0121 -0.2969
H 2.5491 -0.084 5.1508
H -1.1644 0.2431 6.7344
H 3.4144 -1.8819 6.2014
H 5.8709 -2.1975 6.2477
H 7.2635 -0.9534 7.9009
H 6.1722 0.6124 9.5073
H 3.7034 0.9528 9.4325
H 0.4426 0.3395 11.1505
H -1.2717 0.6237 12.9494
H -3.6976 0.6914 12.3612
H -4.3908 0.4657 9.9734
H -2.6971 0.1748 8.2017
51
Energy=1.0005361414696465
C -4.2685 -0.0417 8.9884
C -2.9185 -0.0376 8.3561
C -2.5388 -0.0184 7.0425
C -1.0939 -0.0212 6.9904
C -0.1631 -0.0109 5.9142
C -0.2281 0.0012 4.5366
C 1.0997 0.0003 3.8378
O 2.1543 -0.0004 4.4503
N 1.1039 -0.0 2.4428
C 0.0 -0.0 1.7738
S 0.0 0.0 0.0
N -1.2642 0.0031 2.3374
C -1.4592 0.0111 3.7497
O -2.6046 0.0249 4.1632
C -2.4411 0.0013 1.5138
C -3.0478 1.2099 1.165
C -4.1901 1.2033 0.364
C -4.725 -0.0053 -0.0842
C -4.1142 -1.2125 0.2737
C -2.9743 -1.2129 1.0789
C -4.663 -2.5134 -0.254
F -6.0039 -2.4818 -0.3546
F -4.3386 -3.5517 0.5343
F -4.1857 -2.7866 -1.4832
C -0.6433 -0.0423 8.3334
C 0.7304 -0.0575 8.9118
N -1.7482 -0.052 9.1353
C -1.7263 -0.0756 10.5614
C -1.7571 -1.299 11.24
C -1.7411 -1.3276 12.6348
C -1.6943 -0.1218 13.3322
F -1.6785 -0.144 14.6689
C -1.6639 1.1067 12.6744
C -1.6814 1.1245 11.2795
H -4.4321 -0.9384 9.6094
H -4.4209 0.8333 9.6424
H -5.039 -0.0227 8.2061
H -3.1889 -0.003 6.1763
H 0.8847 -0.0163 6.2324
Au 2.3099 -0.0039 -0.2461
H -2.6169 2.1456 1.5242
H -4.6683 2.1457 0.09
H -5.6216 -0.0159 -0.7059
H -2.4967 -2.1483 1.3699
H 0.9057 0.822 9.553
H 1.4918 -0.0593 8.123
H 0.8893 -0.948 9.5419
H -1.7936 -2.2269 10.6665
H -1.7641 -2.2673 13.1889
H -1.6285 2.0273 13.2589
H -1.6611 2.0712 10.7367
45
Energy=1.301187518742644
F -0.972 0.1967 7.4152
C -0.385 0.1175 6.2071
C -1.1922 0.0659 5.0747
C -0.5401 0.0166 3.8364
N -1.0516 -0.0011 2.5529
C -0.0 -0.0 1.7551
N 1.1905 -0.0 2.4456
C 0.8807 0.0096 3.7881
C 1.69 0.0143 4.9342
C 1.0143 0.0928 6.1646
C 3.1701 0.0136 4.7237
O 3.629 0.42 3.6534
N 4.0105 -0.4376 5.7073
C 3.6318 -1.3171 6.8185
C 4.7267 -2.3489 7.0613
N 5.991 -1.6837 7.3708
C 6.2432 -0.3879 6.732
C 5.4448 -0.2999 5.4414
S 6.7574 -1.9705 8.825
O 6.0717 -3.0821 9.4807
O 6.9531 -0.6927 9.5171
C 8.3996 -2.5065 8.3149
C 9.4874 -1.7547 8.7695
C 10.7892 -2.1279 8.4337
C 11.0026 -3.2574 7.6404
C 9.9216 -4.013 7.182
C 8.6175 -3.6422 7.5196
Cl 7.3037 -4.6144 6.9194
S 0.0 0.0 0.0
H -2.2788 0.0826 5.1591
H 2.1395 0.1113 2.1016
H 1.547 0.168 7.1102
H 3.4707 -0.7435 7.7481
H 2.6941 -1.8333 6.5761
H 4.4552 -2.996 7.904
H 4.8484 -2.9923 6.1739
H 5.9745 0.4432 7.4054
H 7.3155 -0.2901 6.4976
H 5.6157 0.6701 4.9576
H 5.7847 -1.0701 4.7263
H 9.2849 -0.8781 9.3858
H 11.6337 -1.5362 8.7923
H 12.0177 -3.5577 7.3714
H 10.0755 -4.8963 6.5608
Au -2.2964 0.0943 -0.2721
26
Energy=0.041923294623432826
C -3.1593 -0.7555 7.7454
C -3.1967 0.5463 6.9655
O -2.1214 0.6228 6.0097
C -2.3095 0.0047 4.8313
O -3.3179 -0.582 4.5285
C -1.0823 0.1038 3.9712
C 0.1769 0.1523 4.586
C 1.3288 0.1045 3.8032
Br 3.035 0.1412 4.646
C 1.252 0.0 2.4157
C -0.0 -0.0 1.7763
C -1.1628 0.0733 2.5698
O -2.3943 0.034 1.9429
C -3.0653 1.1931 1.7207
F -3.4184 1.804 2.8612
F -4.1599 0.8912 1.0389
F -2.3428 2.0726 1.0207
S 0.0 0.0 0.0
H -3.3335 -1.6125 7.079
H -3.9481 -0.7529 8.5141
H -2.1887 -0.8852 8.2487
H -4.1508 0.6594 6.4305
H -3.0441 1.415 7.6208
H 0.238 0.2043 5.6714
H 2.1569 -0.0809 1.8131
Au -1.5834 -1.5867 -0.5452
50
Energy=1.2398252662357778
S 0.0 0.0 0.0
C 0.0 -0.0 1.775
N 1.1047 -0.0 2.4426
C 1.1019 -0.0006 3.8369
O 2.1591 0.0006 4.4449
C -0.2273 -0.0033 4.5419
C -0.1419 -0.0036 5.9211
C -1.0238 -0.006 7.0526
C -0.395 -0.0 8.3271
C -1.0976 0.0124 9.517
C -0.3986 0.0413 10.8543
C -1.2247 -0.7207 11.8878
C -2.6261 -0.1313 11.9596
N -3.2494 -0.0105 10.6478
C -4.702 0.1111 10.668
C -5.2555 0.6998 9.3784
C -4.6903 -0.0606 8.1814
C -3.1812 -0.0294 8.2158
C -2.442 -0.0142 7.0464
C -2.5238 -0.009 9.4823
C -1.4556 -0.0034 3.7482
O -2.6053 -0.0055 4.1565
N -1.2621 -0.0005 2.3383
C -2.4392 0.0005 1.5102
C -3.0111 -1.2129 1.1193
C -4.1457 -1.2093 0.3075
C -4.7072 0.0026 -0.1058
C -4.1352 1.2135 0.2957
C -3.0006 1.215 1.1078
Au 2.31 -0.0017 -0.2438
H 0.9143 -0.0011 6.2158
H 0.6978 0.004 8.3691
H 0.6127 -0.3826 10.7616
H -0.2703 1.0864 11.1935
H -0.7634 -0.6763 12.8863
H -1.2857 -1.7839 11.6005
H -3.2737 -0.7686 12.5865
H -2.595 0.8621 12.4512
H -5.1564 -0.8823 10.8574
H -4.9776 0.7485 11.5262
H -6.355 0.654 9.4044
H -4.9726 1.7636 9.3073
H -5.0515 0.3604 7.2316
H -5.0476 -1.107 8.2157
H -2.9544 -0.0175 6.0871
H -2.5572 -2.1481 1.451
H -4.593 -2.1559 -0.0038
H -5.595 0.0034 -0.7426
H -4.5742 2.161 -0.0247
H -2.5387 2.1494 1.4305
36
Energy=-0.5725377266611055
O -6.6465 -0.0229 1.0853
C -5.2345 0.0281 1.159
C -4.8509 1.0016 2.2657
C -3.3353 1.254 2.2745
C -2.5329 -0.0128 1.8927
C -3.3006 -1.2991 2.2232
C -4.6195 -1.3637 1.4293
N -1.193 -0.0012 2.4679
C -0.0 -0.0 1.7647
S 0.0 0.0 0.0
N 1.061 -0.0 2.5403
C 0.5706 -0.0043 3.8356
C -0.8475 -0.0075 3.8182
C -1.6033 -0.0132 4.9962
C -0.9218 -0.0153 6.219
C -1.6827 -0.0216 7.5223
C 0.4935 -0.0122 6.2326
C 1.2476 -0.0069 5.0624
H -6.8914 -0.6379 0.3819
H -4.8223 0.4247 0.2068
H -5.4045 1.9425 2.1308
H -5.1843 0.5758 3.2272
H -3.0719 2.0572 1.5681
H -3.0211 1.6037 3.2679
H -2.376 -0.0047 0.8032
H -2.6642 -2.1683 2.0007
H -3.5066 -1.3313 3.3033
H -4.4639 -1.8923 0.4736
H -5.3657 -1.9398 1.9991
Au 2.3026 0.0399 -0.2406
H -2.6939 -0.0164 4.9809
H -1.4347 -0.9099 8.1272
H -2.7702 -0.0217 7.3569
H -1.4362 0.8618 8.1349
H 1.0065 -0.0144 7.1983
H 2.3389 -0.0049 5.0861
39
Energy=0.8413741119579983
S 0.0 0.0 0.0
C -0.0 -0.0 1.7686
N 1.0861 -0.0 2.4743
C 0.9695 0.0014 3.8514
C 2.138 0.0054 4.6376
C 2.0606 -0.0066 6.0268
C 0.8003 0.0097 6.6657
C -0.3612 0.0142 5.9081
C -0.2878 0.0024 4.5071
C -1.519 0.0013 3.703
O -2.6586 0.0013 4.1236
N -1.2598 -0.0003 2.3239
C 3.3604 -0.0048 6.7838
O 4.4032 0.3905 6.266
N 3.3244 -0.4795 8.0549
C 4.53 -0.532 8.8825
C 4.9535 0.7978 9.424
C 4.9927 1.2659 10.7203
C 5.477 2.6191 10.6663
C 5.7099 2.9147 9.2875
N 5.3917 1.788 8.5659
C 6.1822 4.1649 8.8658
C 6.4253 5.1267 9.8421
C 6.2049 4.8539 11.2104
C 5.7354 3.6134 11.6288
Au 2.2931 0.0189 -0.3161
H 3.1131 0.0192 4.1513
H 0.7272 0.056 7.7542
H -1.3485 0.0356 6.3729
H -2.0823 0.0006 1.7261
H 2.4506 -0.8065 8.4438
H 5.3378 -0.9593 8.2655
H 4.3402 -1.2199 9.7163
H 4.7144 0.7038 11.6097
H 5.3908 1.6671 7.5558
H 6.3537 4.3752 7.8076
H 6.7944 6.1112 9.5447
H 6.4078 5.6332 11.9489
H 5.567 3.4116 12.6897
15
Energy=3.048403690114373
Cl -2.9639 1.7015 5.5276
C -2.7331 0.3737 4.3435
O -3.6629 -0.2556 3.9525
C -1.3395 0.2436 3.822
C -1.2334 0.0958 2.4322
C 0.0 0.0 1.7719
S 0.0 0.0 0.0
C 1.1642 -0.0 2.5731
C 1.0798 0.0806 3.9633
C -0.1605 0.2101 4.5909
Cl -0.1802 0.2334 6.3283
Cl 2.7408 -0.1474 1.8643
H -2.1477 0.0686 1.8381
Au 0.9428 -2.0436 -0.5145
H 1.9865 0.0402 4.5657
44
Energy=2.768223802113317
F 2.5152 2.3675 1.7597
C 3.0498 1.2583 1.245
C 4.1895 1.3383 0.4533
C 4.7292 0.163 -0.0759
C 4.1353 -1.0746 0.1907
C 2.9942 -1.1395 0.9912
C 2.4382 0.0297 1.5146
N 1.2669 0.0 2.3351
C -0.0 0.0 1.7737
S 0.0 0.0 0.0
N -1.1028 -0.0016 2.4446
C -1.0986 0.0187 3.8401
O -2.147 -0.0104 4.462
C 0.2285 0.0881 4.5225
C 0.1951 0.1538 5.9022
C 1.1774 0.241 6.9007
C 2.5652 0.2782 7.0071
C 2.8847 0.3569 8.3726
Br 4.6468 0.3091 9.043
C 1.6685 0.3739 9.0829
O 0.6603 0.3101 8.2052
N 1.3314 0.4135 10.3925
C 2.1974 0.9868 11.4223
C 2.0136 0.2176 12.7253
O 0.658 0.1826 13.1153
C -0.1483 -0.4324 12.1344
C -0.0707 0.3034 10.7997
C 1.4554 0.0809 3.7413
O 2.5963 0.1269 4.1736
H 4.6351 2.3161 0.2637
H 5.6235 0.2174 -0.7005
H 4.5629 -1.99 -0.2225
H 2.5126 -2.0925 1.2149
Au -2.3083 0.0443 -0.249
H -0.8279 0.1398 6.2952
H 3.2426 0.2351 6.1617
H 3.2434 0.9485 11.1015
H 1.9215 2.0475 11.5781
H 2.5732 0.7082 13.535
H 2.4078 -0.8113 12.5982
H 0.1605 -1.4875 11.9868
H -1.1823 -0.4219 12.5091
H -0.6353 -0.2358 10.0301
H -0.5112 1.3133 10.9033
32
Energy=1.2135182777667564
F 5.7756 0.0065 -0.8946
C 4.6903 0.0049 -0.1122
C 4.1382 1.2228 0.281
C 3.0071 1.216 1.0951
C 2.4435 0.0016 1.4968
C 3.0144 -1.2111 1.1004
C 4.1456 -1.2146 0.2864
N 1.272 -0.0 2.3319
C 0.0 -0.0 1.7725
S 0.0 0.0 0.0
N -1.0991 -0.0003 2.4465
C -1.0888 -0.0007 3.8423
O -2.1355 0.0001 4.4653
C 0.2436 -0.0028 4.5258
C 0.2026 -0.0049 5.9101
C 1.175 -0.0076 6.9323
C 0.93 -0.0097 8.3271
C 2.1698 -0.0122 8.9774
C 3.153 -0.0115 7.9741
N 2.5499 -0.0087 6.7715
C 1.4617 -0.0023 3.7292
O 2.6211 -0.0037 4.144
H 4.5982 2.1538 -0.0535
H 2.5503 2.1524 1.4185
H 2.5634 -2.1489 1.4279
H 4.6114 -2.1442 -0.0438
Au -2.3081 0.0002 -0.2564
H -0.8263 -0.0045 6.2857
H -0.0586 -0.0095 8.7823
H 2.3551 -0.0142 10.0491
H 4.2379 -0.0127 8.063
H 2.9485 -0.0074 5.8201
26
Energy=0.7824402988131585
O -5.1373 -1.5686 4.5401
C -3.8018 -1.5222 4.687
O -3.1096 -2.4812 4.8912
C -3.3009 -0.089 4.5497
N -1.888 0.0146 4.7664
C -1.2262 -0.0252 6.0056
C -1.7685 -0.0563 7.289
C -0.8766 -0.0745 8.3658
C 0.5151 -0.0648 8.1688
C 1.0539 -0.0405 6.8815
C 0.1799 -0.0226 5.7912
C 0.3605 -0.008 4.3529
N 1.437 -0.0032 3.5824
N 1.2493 -0.0 2.2673
C 0.0 0.0 1.7695
S 0.0 0.0 0.0
N -1.1511 0.0008 2.4713
C -0.9459 -0.0018 3.7719
H -5.4047 -2.5006 4.6216
H -3.5266 0.2584 3.5301
H -3.8574 0.5583 5.2457
H -2.8467 -0.0754 7.4559
H -1.2738 -0.1011 9.383
H 1.1797 -0.0813 9.0349
H 2.1325 -0.0388 6.7149
Au -2.2512 -0.0423 -0.4773
27
Energy=0.8641009475375664
S 0.0 0.0 0.0
C 0.0 -0.0 1.7838
C 1.2173 0.0 2.4774
C 1.2102 0.0865 3.8737
C 0.0112 0.1641 4.5755
C -1.2115 0.1632 3.8799
C -1.2183 0.0872 2.483
O -2.3306 0.2428 4.6428
C -3.5915 0.239 4.0122
C -4.6744 0.324 5.0551
C -4.4172 0.4081 6.4273
C -5.468 0.4859 7.3468
C -6.7925 0.4804 6.9031
C -7.0716 0.3968 5.5357
C -6.0101 0.3206 4.6429
F -6.2625 0.2392 3.3212
Au -0.3739 -2.2133 -0.5162
H 2.1531 -0.0691 1.9216
H 2.1554 0.089 4.4218
H -0.0105 0.2266 5.6648
H -2.1453 0.0921 1.913
H -3.6774 1.0903 3.3104
H -3.7212 -0.6794 3.4086
H -3.3799 0.4115 6.7615
H -5.249 0.5512 8.4146
H -7.6149 0.5412 7.6193
H -8.0928 0.3898 5.1509
19
Energy=0.5921858246768252
N 3.1641 -1.0314 1.6567
C 2.542 0.1377 1.9174
O 3.0108 1.2329 1.6476
C 1.1798 0.0 2.5695
C -0.0 0.0 1.785
S 0.0 0.0 0.0
C -1.2483 -0.0834 2.4201
C -1.3036 -0.169 3.8066
C -0.1648 -0.1551 4.6059
C 1.0717 -0.0639 3.9664
Br 2.6395 -0.0534 5.0518
N -2.6272 -0.2634 4.4656
O -3.6111 -0.2744 3.747
O -2.6428 -0.3259 5.6831
H 2.7386 -1.9209 1.881
H 4.0695 -1.0118 1.2006
Au 1.2045 1.9277 -0.4477
H -2.1702 -0.0745 1.8414
H -0.2549 -0.2143 5.6885
16
Energy=0.09112764931309345
Cl -2.7167 0.0001 1.5496
C -1.2231 -0.0 2.4623
C -1.3143 -0.0001 3.8674
C -0.1796 -0.0002 4.6719
C 1.0486 -0.0001 4.0038
C 1.1565 0.0 2.5911
C 0.0 0.0 1.7669
S 0.0 0.0 0.0
N 2.4968 0.0001 2.2369
C 3.1734 0.0001 3.3586
N 2.3581 -0.0 4.4583
H -2.3084 -0.0002 4.3164
H -0.2556 -0.0002 5.76
Au 2.298 -0.0001 -0.384
H 4.2601 0.0001 3.4415
H 2.657 -0.0001 5.4255
41
Energy=4.648606004698807
O -2.312 -0.0127 4.3944
C -1.1706 0.1038 3.7151
N -1.2145 -0.0237 2.4195
C -0.0 -0.0 1.7677
S 0.0 0.0 0.0
N 1.1871 -0.0 2.2868
C 1.3253 0.0634 3.668
O 2.4092 -0.0069 4.2181
C 0.0554 0.272 4.4605
C 0.192 0.4745 5.8113
C -0.7071 0.8905 6.843
C -0.4471 0.5874 8.1832
N -1.4284 1.0764 8.9885
C -1.4801 0.9699 10.4327
C -1.2519 2.2919 11.1413
C -0.4055 3.2686 10.6024
C -0.1869 4.4645 11.2823
C -0.8085 4.7061 12.5118
Cl -0.5213 6.2067 13.3351
C -1.6611 3.732 13.0562
Cl -2.4649 3.9916 14.5738
C -1.8791 2.5362 12.3656
C -2.341 1.785 8.2071
C -3.4568 2.5237 8.6129
C -4.1627 3.2056 7.6249
C -3.7457 3.1662 6.2797
C -2.6345 2.4251 5.8855
C -1.9236 1.6941 6.8519
H -3.0115 -0.1673 3.7358
Au -2.238 -0.049 -0.5338
H 1.2234 0.2947 6.142
H 0.3814 0.0144 8.5973
H -0.7134 0.2389 10.7342
H -2.4538 0.5489 10.7306
H 0.0788 3.1034 9.6382
H 0.4678 5.2308 10.8653
H -2.5544 1.7985 12.8038
H -3.7482 2.5873 9.662
H -5.0385 3.7968 7.9012
H -4.302 3.7364 5.5323
H -2.3177 2.4262 4.8444
33
Energy=4.0574531348244856
O -2.8643 0.3878 7.2872
C -3.651 0.3875 6.184
C -5.0448 0.4722 6.2746
C -5.8248 0.469 5.1185
C -5.2186 0.3809 3.8591
C -3.8338 0.2971 3.7627
C -3.0151 0.2976 4.9155
C -1.5721 0.2107 4.8678
C -0.7554 0.1189 3.7804
N -1.105 0.0587 2.4342
C -0.0 -0.0 1.7523
S 0.0 0.0 0.0
N 1.1535 0.0 2.5526
C 0.7293 0.0448 3.9069
O 1.4559 0.0252 4.8741
C 2.5111 -0.0132 2.1519
C 3.0347 1.0343 1.3822
C 4.3677 1.0071 0.9752
C 5.1713 -0.0627 1.3658
F 6.453 -0.0909 0.9786
C 4.6773 -1.1014 2.1523
C 3.3381 -1.0744 2.5448
H -3.4146 0.4532 8.0783
H -5.5156 0.5409 7.2602
H -6.9121 0.5358 5.2041
H -5.8296 0.3782 2.9543
H -3.3409 0.2265 2.7933
H -1.0505 0.218 5.8274
Au 1.6733 -1.5325 -0.481
H 2.3844 1.8582 1.0875
H 4.7952 1.8054 0.3665
H 5.3429 -1.9138 2.4483
H 2.9266 -1.8727 3.1629
24
Energy=-1.3899466310414603
S 0.0 0.0 0.0
C 0.0 0.0 1.8388
C 1.3374 0.0 2.579
C 2.2182 -1.254 2.476
C 2.9813 -1.3872 1.1473
C 3.909 -2.601 1.1532
N 4.8312 -2.5261 2.2769
C 4.1382 -2.5192 3.5552
C 3.221 -1.3004 3.642
Au 1.2284 1.8695 -0.5166
H -0.6172 0.8423 2.1834
H -0.562 -0.923 2.0706
H 1.0912 0.154 3.6457
H 1.9197 0.8885 2.2735
H 1.5582 -2.1389 2.5739
H 3.5874 -0.4769 0.9933
H 2.2778 -1.4524 0.3068
H 4.4884 -2.634 0.2164
H 3.283 -3.525 1.1778
H 5.5066 -3.2863 2.2396
H 4.8821 -2.4915 4.3681
H 3.5211 -3.4362 3.7124
H 2.6838 -1.3055 4.6057
H 3.8421 -0.3876 3.6172
32
Energy=1.2075192593037636
S 0.0 0.0 0.0
C 0.0 0.0 1.7698
N -1.1101 0.0 2.4394
C -1.1213 -0.0003 3.8235
O -2.2168 0.0 4.3966
C 0.1747 -0.001 4.5289
C 0.3676 -0.0023 5.9026
C -0.5021 -0.0032 7.0118
C -0.1342 -0.0048 8.3807
C -1.3128 -0.0054 9.1343
C -2.38 -0.004 8.2174
N -1.8844 -0.0028 6.9691
C 1.426 -0.0007 3.7459
O 2.5512 -0.001 4.2062
N 1.2559 0.0 2.336
C 2.4415 -0.0002 1.5188
C 3.0119 -1.2149 1.1307
C 4.1569 -1.2122 0.3336
C 4.7288 -0.0006 -0.0661
C 4.1574 1.2112 0.3338
C 3.0124 1.2143 1.1308
Au -2.307 -0.0019 -0.2659
H 1.4259 -0.0028 6.1826
H 0.8899 -0.0056 8.7494
H -1.4056 -0.0066 10.2181
H -3.4531 -0.0039 8.4007
H -2.3463 -0.0016 6.0365
H 2.551 -2.15 1.4531
H 4.6049 -2.1592 0.0248
H 5.6254 -0.0008 -0.6902
H 4.6059 2.1579 0.0251
H 2.5519 2.1495 1.4534
32
Energy=1.5836224719297376
Br 4.1566 0.0808 9.4345
C 2.5126 0.1168 8.4669
C 1.3043 0.1839 9.1655
C 0.111 0.2093 8.4371
C 0.1105 0.1695 7.0444
C 1.3314 0.1011 6.3363
C 2.5371 0.0757 7.077
C 1.4669 0.0533 4.8889
C 0.5806 0.0522 3.8516
N 1.0402 -0.0 2.5291
C 0.0 -0.0 1.7522
N -1.2139 0.0441 2.4461
C -0.9181 0.0986 3.8253
O -1.7557 0.1667 4.7007
C -2.5286 0.0319 1.9051
C -2.9067 -0.9691 1.0013
C -4.1962 -0.9667 0.4664
C -5.1157 0.0121 0.8518
C -4.7401 0.994 1.7736
C -3.4476 1.0118 2.2987
S 0.0 0.0 0.0
H 1.2996 0.2155 10.2559
H -0.8399 0.2616 8.9725
H -0.827 0.1905 6.4917
H 3.4929 0.0229 6.5535
H 2.5029 0.0054 4.5385
H -2.1928 -1.7458 0.7239
H -4.4853 -1.7431 -0.2453
H -6.1267 0.0071 0.4383
H -5.4568 1.7583 2.0826
H -3.147 1.7746 3.0165
Au 2.3003 0.0836 -0.2722
29
Energy=-2.3277348848946797
C -5.5617 -2.3709 3.062
C -4.48 -1.7387 2.1952
C -4.3519 -0.2165 2.3272
C -2.9621 0.0657 1.7603
N -2.192 -1.0976 2.1998
C -3.0554 -2.2594 2.4931
C -2.6893 -3.4956 1.6762
C -0.8462 -1.1725 2.3682
O -0.3036 -2.1546 2.8628
C -0.0 0.0 1.8528
S 0.0 0.0 0.0
C 1.3954 0.0 2.4572
H -6.5595 -1.9879 2.7959
H -5.5833 -3.4659 2.9439
H -5.3883 -2.1512 4.1286
H -4.6966 -1.9653 1.1352
H -4.3888 0.072 3.3918
H -5.1473 0.3315 1.8006
H -2.9712 0.1385 0.6583
H -2.5331 1.0009 2.1468
H -2.9575 -2.5016 3.5673
H -2.6971 -3.2579 0.6002
H -3.4212 -4.2981 1.8601
H -1.6911 -3.8587 1.9512
H -0.5047 0.9553 2.0722
Au 0.6628 -2.162 -0.4323
H 1.9893 0.8284 2.0468
H 1.338 0.1033 3.5527
H 1.9031 -0.9494 2.2391
17
Energy=1.5296802576685724
S 0.0 0.0 0.0
C -0.0 -0.0 1.774
C 1.2521 -0.0 2.4069
C 1.3284 -0.0854 3.7941
F 2.5234 -0.1288 4.3699
C 0.1743 -0.1449 4.5763
C -1.0865 -0.1357 3.9518
C -1.1632 -0.0786 2.5602
C -2.3243 -0.0549 4.7887
O -2.4134 0.5001 5.8327
Cl -3.7502 -0.8655 4.0477
N 0.3178 -0.2908 6.0336
O 1.0184 0.5257 6.5991
O -0.2529 -1.2365 6.5453
Au -1.8968 1.1602 -0.5868
H 2.1802 0.0627 1.8366
H -2.143 -0.0804 2.0859
40
Energy=-2.2050847311250963
C 0.496 0.327 6.4238
C 1.4064 0.1707 5.2041
C 0.6351 0.0852 3.9162
C -0.7353 0.113 3.7906
N -1.116 0.0595 2.4781
C -0.0 0.0 1.7802
N 1.125 0.0 2.594
C 2.5377 -0.0463 2.0685
C 2.764 1.3275 1.3689
C 3.9122 1.6065 0.3585
C 3.6661 0.9116 -0.9942
C 3.8797 3.1295 0.1142
C 5.3117 1.238 0.8764
C 2.6648 -1.2926 1.1753
C 3.551 -0.2353 3.2036
S 0.0 0.0 0.0
H 1.1 0.3923 7.3413
H -0.117 1.2387 6.3562
H -0.1861 -0.5304 6.5305
H 2.0329 -0.723 5.3504
H 2.1035 1.0238 5.1775
H -1.4716 0.1764 4.5879
H 2.8479 2.0608 2.1888
H 1.8371 1.5855 0.8388
H 2.6525 1.1231 -1.3676
H 3.7795 -0.1785 -0.9349
H 4.3883 1.2754 -1.743
H 4.6332 3.4219 -0.6343
H 4.0887 3.6873 1.0413
H 2.8929 3.4498 -0.2566
H 5.4512 0.1502 0.9643
H 6.0802 1.6046 0.1768
H 5.5133 1.6914 1.86
H 2.0314 -1.2561 0.2812
H 2.3761 -2.1817 1.7559
H 3.7057 -1.4199 0.8501
H 3.3297 -1.1332 3.7941
H 4.543 -0.3728 2.7618
H 3.6077 0.6321 3.8702
Au -2.2872 0.3092 -0.2232
18
Energy=-1.263502040820466
C -1.6595 -0.001 6.602
O -0.3931 -0.0004 5.9794
C -0.328 -0.0002 4.6286
C -1.4428 -0.0 3.7797
C -1.2675 0.0001 2.3963
Cl -2.709 0.0003 1.4099
C -0.0 0.0 1.7726
C 1.1144 0.0 2.6647
C 0.9464 -0.0002 4.0596
C 2.4711 -0.0 2.2078
N 3.5945 -0.0001 1.8989
S 0.0 0.0 0.0
H -2.2448 0.8977 6.3374
H -1.4751 -0.0014 7.6839
H -2.2444 -0.8996 6.3366
H -2.4597 0.0001 4.1669
H 1.8166 -0.0003 4.7156
Au 2.2281 -0.0035 -0.6062
13
Energy=-1.3114456887113684
F -2.3554 0.0514 1.8733
C -1.189 0.0837 2.5171
C -1.1925 0.1669 3.9052
C 0.0288 0.176 4.5844
C 1.2344 0.0914 3.885
C 1.2047 -0.0 2.4961
F 2.3579 -0.0957 1.8373
C -0.0 -0.0 1.768
S 0.0 0.0 0.0
H -2.1468 0.2248 4.4304
H 0.0402 0.2463 5.674
H 2.1993 0.0915 4.3939
Au -0.6483 -2.1564 -0.4865
15
Energy=0.002391230837991941
N -2.1578 0.0005 4.5045
C -0.9921 0.0003 3.8298
N -1.1016 0.0001 2.4681
C -0.0 0.0 1.7646
S 0.0 0.0 0.0
N 1.2343 0.0 2.3255
C 1.4789 0.0002 3.7322
O 2.6214 0.0001 4.1388
C 0.2494 0.0004 4.4933
C 0.2841 0.0007 5.9115
N 0.2082 0.0009 7.0728
H -3.0231 0.0006 3.9828
H -2.1704 0.0008 5.5165
Au -2.2763 -0.0019 -0.394
H 2.0705 -0.0003 1.7472
23
Energy=-0.27466313109321305
S 0.0 0.0 0.0
C 0.0 0.0 1.8746
C 1.408 0.0 2.3763
C 2.0321 -1.0587 2.9133
C 3.5216 -1.1227 3.1035
N 4.121 -2.3556 2.5575
C 4.3163 -2.6851 1.2371
O 3.9791 -2.0406 0.2494
C 5.0529 -4.0089 1.1579
C 5.1983 -4.4756 2.6064
C 4.6254 -3.3431 3.4403
O 4.5851 -3.2531 4.6378
Au 2.05 -1.0327 -0.2505
H -0.5441 0.9111 2.1689
H -0.5533 -0.8765 2.2428
H 1.9906 0.8977 2.1363
H 1.4712 -1.973 3.1389
H 3.8039 -1.1395 4.1673
H 4.0084 -0.2608 2.6239
H 6.0141 -3.836 0.6494
H 4.4734 -4.6894 0.5168
H 6.2355 -4.6583 2.9223
H 4.6301 -5.3913 2.8303
44
Energy=4.525749972482013
C -0.333 2.781 9.2219
C 0.759 1.7463 9.3196
C 1.0339 1.0689 10.512
C 2.0516 0.1144 10.5729
C 2.8331 -0.2113 9.4586
C 3.9171 -1.2517 9.5784
C 2.5575 0.4638 8.2434
C 1.5373 1.4273 8.1999
C 3.3022 0.172 7.0034
N 4.6235 0.0469 6.9835
N 4.9623 -0.1882 5.6954
C 3.8772 -0.2211 4.878
C 2.7563 0.0044 5.6762
C 1.3637 0.005 5.3111
C 0.8045 -0.0086 4.0793
S 1.6203 0.0 2.5156
C 0.0 0.0 1.7388
S 0.0 0.0 0.0
N -1.0288 -0.0017 2.5115
C -0.6894 -0.005 3.8799
O -1.4932 0.0014 4.7835
C 6.3219 -0.3766 5.3402
C 6.7315 -0.2371 4.0076
C 8.0698 -0.4475 3.6727
C 9.0031 -0.7812 4.6577
C 8.5874 -0.9033 5.9872
C 7.2517 -0.7052 6.3352
H -1.0971 2.4832 8.4849
H 0.0671 3.7552 8.8957
H -0.8356 2.9289 10.1887
H 0.4451 1.2882 11.4068
H 2.2425 -0.4021 11.5174
H 3.8877 -1.9689 8.7442
H 4.9159 -0.7899 9.5521
H 3.8168 -1.8086 10.5214
H 1.3574 1.9618 7.2643
H 3.9626 -0.4571 3.8224
H 0.6348 0.0163 6.127
Au -2.3001 -0.0096 -0.3022
H 6.0184 0.0533 3.2352
H 8.3847 -0.3369 2.6327
H 10.0501 -0.9402 4.3912
H 9.3101 -1.1602 6.7651
H 6.9098 -0.7975 7.3648
24
Energy=-1.8667980155671142
C -7.9795 1.9416 1.5618
N -6.5862 1.7129 1.2455
N -6.2315 1.4074 -0.0103
C -4.9048 1.312 0.0145
C -4.3812 1.5678 1.3096
C -5.5124 1.8215 2.0753
C -2.9529 1.5074 1.7568
C -2.5179 0.0725 2.0934
N -1.1258 -0.0003 2.4999
N -0.7577 0.0175 3.8046
N 0.5254 0.0096 3.8244
N 1.0384 0.0 2.5767
C -0.0 0.0 1.7485
S 0.0 0.0 0.0
H -8.585 1.1081 1.1791
H -8.3356 2.8771 1.1027
H -8.097 2.0063 2.6515
H -4.3561 1.0676 -0.8958
H -5.6234 2.0723 3.1285
H -2.7943 2.1362 2.6467
H -2.2923 1.8971 0.9653
H -3.1106 -0.3319 2.9244
H -2.6547 -0.5869 1.223
Au 2.3004 -0.1118 -0.2654
38
Energy=0.6931011373656298
O -4.0245 0.0938 3.4241
C -3.7119 0.0283 2.2505
N -2.4057 0.0304 1.7798
C -1.2221 0.0632 2.5034
C -1.1702 0.134 3.9076
C 0.0608 0.1437 4.5594
C 1.2647 0.0795 3.8454
C 1.2262 0.0 2.4578
C 0.0 0.0 1.7708
S 0.0 0.0 0.0
N -4.6358 -0.0917 1.2303
C -6.0367 0.1593 1.4706
C -6.4896 1.5621 1.064
C -6.3629 1.8475 -0.4283
O -6.7976 3.1591 -0.7286
C -6.2942 4.1205 0.1054
C -5.7394 3.7828 1.354
O -5.6996 2.4896 1.7922
C -5.2141 4.7848 2.1742
C -5.2531 6.1179 1.7642
C -5.8244 6.4563 0.5319
C -6.3391 5.4579 -0.2962
H -2.2538 0.0736 0.7736
H -2.1054 0.1818 4.4597
H 0.0782 0.2018 5.6505
H 2.2227 0.0878 4.3692
H 2.1464 -0.0606 1.8739
Au -0.5955 -2.1776 -0.5355
H -4.3068 -0.1597 0.2757
H -6.1957 0.0399 2.5506
H -6.6596 -0.5861 0.948
H -7.5537 1.6844 1.3458
H -6.992 1.1603 -1.0123
H -5.3083 1.7206 -0.7401
H -4.7861 4.4883 3.1337
H -4.8417 6.8947 2.4121
H -5.8629 7.4991 0.2101
H -6.7791 5.6875 -1.2686
19
Energy=1.4386664218054634
C -0.6327 0.5548 6.7855
O 0.4772 0.3904 5.9247
C 0.2691 0.2732 4.6033
C -0.9883 0.2831 3.9955
C -1.1446 0.1454 2.6064
C -2.5156 0.1025 2.0341
O -2.8771 -0.4547 1.051
Cl -3.7497 1.0428 3.0072
C -0.0 0.0 1.7791
C 1.2638 0.0 2.3989
C 1.4051 0.1314 3.7741
Cl 2.9834 0.1201 4.4938
S 0.0 0.0 0.0
H -1.314 -0.3124 6.7374
H -0.225 0.6373 7.8006
H -1.1988 1.4712 6.545
H -1.8828 0.402 4.6011
H 2.1553 -0.1047 1.781
Au -0.7291 -2.1241 -0.5349
15
Energy=2.2165613084631013
S 0.0 0.0 0.0
C 0.0 -0.0 1.7832
C 1.2119 -0.0 2.488
C 1.2201 -0.0584 3.8829
Br 2.8907 -0.0069 4.7782
C 0.0139 -0.1406 4.6021
C -1.2019 -0.173 3.8913
C -1.2035 -0.0777 2.4961
C -2.5495 -0.2732 4.5372
O -3.4589 0.4622 4.3322
Cl -2.7529 -1.7342 5.5588
Cl 0.019 -0.1298 6.3328
Au -0.1739 2.2435 -0.4922
H 2.1544 0.0603 1.9439
H -2.153 -0.0729 1.96
25
Energy=-0.8839932787897473
C 4.4179 -3.2292 6.9916
C 4.8126 -2.5583 5.6881
O 4.1152 -1.3131 5.4991
C 2.8736 -1.38 4.9933
O 2.3147 -2.4037 4.6913
C 2.2666 0.0133 4.8949
C 1.0612 0.063 3.9944
C -0.2081 0.1534 4.5778
C -1.3447 0.1668 3.7775
F -2.5483 0.2503 4.3579
C -1.2614 0.0787 2.3969
C -0.0 0.0 1.7772
C 1.1575 0.0 2.5905
I 3.0846 -0.139 1.7013
S 0.0 0.0 0.0
H 3.3589 -3.5248 6.9697
H 4.5833 -2.5544 7.8457
H 5.024 -4.1359 7.146
H 5.8767 -2.2834 5.6827
H 4.6047 -3.2131 4.8289
H 3.0533 0.7109 4.5746
H 1.9848 0.3072 5.9189
H -0.3202 0.2047 5.6619
H -2.1694 0.0642 1.7941
Au 0.8602 -2.0972 -0.4693
41
Energy=0.7381599947970707
N 3.6441 -2.367 -3.5273
C 3.8411 -2.0217 -2.2223
C 4.457 -0.7973 -1.8715
C 4.7098 -0.4808 -0.5419
C 4.3849 -1.3646 0.501
C 3.7879 -2.5881 0.1737
C 3.4536 -2.9056 -1.1663
N 4.6153 -1.0273 1.8697
C 3.5935 -0.5252 2.7068
O 3.7598 -0.4263 3.908
N 2.4266 -0.1796 2.0535
C 1.1527 -0.0 2.6303
C 0.9832 0.1506 4.0183
C -0.2877 0.2873 4.5754
C -1.4216 0.2757 3.7632
C -1.2666 0.1278 2.3865
C -0.0 -0.0 1.7926
S 0.0 0.0 0.0
C 5.8572 -1.4657 2.4389
C 7.0549 -1.1829 1.767
C 8.2739 -1.6448 2.2664
C 8.3146 -2.386 3.4492
C 7.1218 -2.667 4.1212
C 5.898 -2.2192 3.622
H 3.701 -1.6469 -4.2359
H 3.0319 -3.1435 -3.7418
H 4.7328 -0.0946 -2.6606
H 5.1529 0.4847 -0.2913
H 3.5615 -3.2996 0.97
H 3.1042 -3.912 -1.4113
H 2.4232 -0.1768 1.0383
H 1.8682 0.1599 4.6474
H -0.3827 0.4048 5.6576
H -2.4207 0.377 4.1931
H -2.1405 0.1084 1.7323
Au 1.4342 -1.7066 -0.6423
H 7.0347 -0.6005 0.8455
H 9.1969 -1.4148 1.7287
H 9.2684 -2.7425 3.8447
H 7.1392 -3.2484 5.0463
H 4.9747 -2.4342 4.155
37
Energy=0.22744392899605323
S 0.0 0.0 0.0
C -0.0 -0.0 1.7806
N -1.1197 -0.0071 2.4338
C -1.0917 -0.0219 3.8108
C -2.3047 -0.0226 4.533
C -2.2879 -0.0399 5.92
C -1.0698 -0.0567 6.6284
C 0.1309 -0.0555 5.9337
C 0.1269 -0.0385 4.5276
C 1.3905 -0.0306 3.7917
O 2.4982 -0.0396 4.3023
N 1.2488 -0.0 2.3796
C 2.4907 0.0309 1.5979
C 2.8921 1.4309 1.1061
C 4.2789 1.3531 0.423
C 5.4298 1.6059 1.3917
S 5.4389 3.3656 1.8762
O 5.9683 3.466 3.243
O 6.0341 4.1339 0.7719
C 3.647 3.7298 1.9198
C 2.8622 2.4666 2.2514
Au -2.2937 -0.0709 -0.3075
H -3.2404 -0.01 3.9718
H -3.232 -0.0405 6.4705
H -1.0737 -0.0699 7.7202
H 1.0943 -0.0665 6.4463
H 3.2682 -0.367 2.262
H 2.3793 -0.6524 0.7438
H 2.1636 1.7456 0.3423
H 4.4097 0.3713 -0.06
H 4.3474 2.097 -0.3862
H 6.4177 1.4587 0.9329
H 5.3668 1.0187 2.3181
H 3.557 4.5027 2.6958
H 3.3909 4.1601 0.9417
H 1.8199 2.7361 2.4807
H 3.2705 2.0274 3.1746
28
Energy=0.346401139624609
C -5.1749 -0.8483 -0.4545
C -3.8363 -0.3174 -0.9837
C -3.3697 0.9266 -0.2901
N -3.4462 2.1181 -0.8809
N -2.9554 3.0007 0.0057
C -2.5644 2.4095 1.1615
C -2.8212 1.0513 1.0204
C -2.5292 -0.0414 2.0012
N -1.1565 0.0014 2.498
C -0.7241 0.0101 3.804
N 0.5814 0.0073 3.8548
N 1.0457 -0.0 2.5663
C 0.0 0.0 1.7578
S 0.0 0.0 0.0
C -2.8448 4.3953 -0.3613
H -5.485 -1.7544 -0.9985
H -5.967 -0.092 -0.5686
H -5.1142 -1.105 0.6158
H -3.9222 -0.0864 -2.0561
H -3.0587 -1.0949 -0.8894
H -2.1147 2.9747 1.9752
H -3.1828 0.011 2.886
H -2.7061 -1.02 1.5282
H -1.4053 0.0211 4.6541
Au 2.2542 -0.4988 -0.2293
H -3.8239 4.7745 -0.688
H -2.5025 4.9711 0.5083
H -2.1248 4.5184 -1.1847
45
Energy=1.7093784720604899
C -2.1165 -0.1751 8.0424
C -2.5062 0.7874 6.9774
N -3.7221 0.9755 6.6143
N -3.7562 1.9121 5.591
C -2.4927 2.3255 5.2005
O -2.2087 3.0195 4.2505