35
Energy=1.4689037486379524
O 3.222 0.5083 10.6074
C 2.5496 0.4249 9.4481
C 3.1851 0.4003 8.196
C 2.4626 0.3132 7.0146
C 1.0495 0.2468 7.0399
C 0.1538 0.1565 5.9069
C 0.2379 0.094 4.5381
C -1.0969 0.0146 3.833
O -2.1456 -0.024 4.4496
N -1.1015 -0.0021 2.4419
C 0.0 -0.0 1.7697
S 0.0 0.0 0.0
N 1.267 -0.0 2.3333
C 1.4672 0.0913 3.7346
O 2.6137 0.1483 4.1408
C 2.4353 0.0306 1.5057
C 3.0 -1.1398 0.995
C 4.1341 -1.0725 0.185
C 4.7109 0.1683 -0.1038
C 4.1618 1.3449 0.4126
C 3.0297 1.2626 1.2146
F 2.4851 2.3715 1.7195
C 0.4156 0.2735 8.3095
C 1.1403 0.3593 9.4868
Cl 0.3298 0.3887 11.0268
H 4.1718 0.5473 10.4292
H 4.2778 0.4517 8.1597
H 2.9726 0.2947 6.0553
H -0.8998 0.1292 6.2092
Au -2.3079 0.0426 -0.2581
H 2.5312 -2.0953 1.2351
H 4.5693 -1.9884 -0.2189
H 5.5994 0.2242 -0.7365
H 4.5943 2.325 0.2053
H -0.6725 0.2256 8.3727
18
Energy=2.456112415920126
Cl 2.7998 0.1405 6.1937
C 2.7298 0.0546 4.3938
O 3.7339 -0.0066 3.7604
C 1.3523 0.0663 3.8191
C 0.1949 0.1347 4.5943
C -1.0479 0.141 3.9652
F -2.1131 0.2086 4.7629
C -1.1858 0.081 2.5698
C 0.0 -0.0 1.7919
C 1.2483 0.0 2.4232
S 0.0 0.0 0.0
C -2.5538 0.1 1.8985
F -2.658 1.1273 1.0468
F -3.561 0.2105 2.7699
F -2.7634 -1.0361 1.2077
H 0.2345 0.1856 5.681
H 2.1535 -0.0571 1.8196
Au -0.1619 -2.2516 -0.4628
21
Energy=-0.5261665185014481
C 3.92 0.3861 3.595
C 2.7781 -0.2194 4.3906
O 2.9802 -0.7768 5.4457
C 1.3862 -0.1274 3.8106
C 1.2451 -0.0 2.425
C -0.0 -0.0 1.7725
S 0.0 0.0 0.0
C -1.1481 -0.0903 2.582
C -1.0343 -0.1651 3.9722
C 0.211 -0.1977 4.5988
C 0.2162 -0.2642 6.1206
F 1.0274 0.6564 6.6575
F 0.5634 -1.4685 6.58
F -1.0206 -0.0117 6.6056
Cl -2.7442 -0.0696 1.8982
H 3.6829 1.4031 3.2476
H 4.8112 0.4017 4.2345
H 4.1413 -0.2258 2.7054
H 2.1302 0.0871 1.7961
Au -1.2557 1.866 -0.5219
H -1.9431 -0.1984 4.5698
35
Energy=-1.07862879171765
S 0.0 0.0 0.0
C -0.0 -0.0 1.8452
C 1.3588 0.0 2.5289
C 1.561 -0.9654 3.6783
C 2.1901 -1.247 2.3442
C 2.086 1.3386 2.6204
N 1.9337 2.0354 3.8818
C 0.5921 2.3315 4.3316
C 0.603 2.5442 5.8654
C 0.3977 1.2525 6.6373
O 1.8476 3.0843 6.2959
C 2.434 3.9256 5.3417
C 2.8658 3.1508 4.0792
C 2.9836 4.1277 2.8995
Au 0.7168 2.1109 -0.5483
H -0.6436 0.8159 2.2014
H -0.528 -0.9423 2.0686
H 2.1998 -0.6173 4.4932
H 0.7118 -1.5763 3.9981
H 3.2723 -1.1298 2.242
H 1.7683 -2.0397 1.7201
H 3.1663 1.175 2.4766
H 1.7661 1.9581 1.7494
H 0.1445 3.2116 3.8157
H -0.0622 1.4797 4.1094
H -0.2063 3.2607 6.1208
H 1.1479 0.5122 6.3234
H -0.6082 0.8417 6.4589
H 0.5182 1.4346 7.7155
H 1.7374 4.7431 5.0577
H 3.3103 4.3979 5.81
H 3.8624 2.7077 4.2639
H 3.6176 4.9855 3.1776
H 1.9953 4.5219 2.6104
H 3.4355 3.6583 2.0137
21
Energy=0.6139101731253035
O -1.2865 -0.5288 6.2296
C -1.7488 -0.2989 5.121
C -0.8762 -0.1724 3.9272
S 0.8449 -0.1354 4.2086
C 1.1586 -0.0 2.525
C 0.0 -0.0 1.7665
C -1.17 -0.1062 2.5854
S 0.0 0.0 0.0
N -3.0906 -0.1542 4.895
C -4.0316 -0.171 6.0043
C -4.1543 1.173 6.6702
C -5.2289 1.967 6.6321
Cl -5.2696 3.5208 7.4085
Cl -6.7095 1.548 5.8092
H 2.1774 0.0756 2.1485
H -2.1748 -0.1496 2.164
Au -0.5025 2.1877 -0.5306
H -3.3975 0.2599 4.0234
H -3.649 -0.8978 6.735
H -5.0075 -0.5177 5.6405
H -3.2737 1.539 7.2042
22
Energy=0.8108551004035044
C 4.2345 -0.9471 0.705
C 2.953 -1.2209 1.4574
O 2.4127 0.0429 1.8854
C 1.2124 -0.0 2.5131
C 1.1824 0.0365 3.9182
Cl 2.6901 0.0219 4.7874
C -0.0221 0.0829 4.6195
C -1.215 0.078 3.9046
C -1.2188 0.0121 2.5041
C 0.0 -0.0 1.7822
S 0.0 0.0 0.0
C -2.575 -0.0324 1.8869
O -3.5116 0.6153 2.2245
Cl -2.7723 -1.331 0.6436
H 4.0325 -0.3481 -0.1973
H 4.7026 -1.8937 0.3946
H 4.9437 -0.3945 1.3396
H 2.2127 -1.7318 0.8198
H 3.1378 -1.8407 2.3516
H -0.0144 0.118 5.7091
H -2.1701 0.1138 4.4309
Au 1.6089 1.5929 -0.4909
40
Energy=4.291953967953448
S 0.0 0.0 0.0
C 0.0 -0.0 1.7319
N -1.0371 0.001 2.5001
C -0.7025 0.0005 3.8562
O -1.5184 -0.0042 4.7505
C 0.8017 0.0033 4.0717
S 1.6213 0.0 2.5082
C 1.4707 0.0136 5.2594
C 2.9723 0.0166 5.2491
O 3.7132 0.0458 4.2702
N 3.3925 0.0163 6.5543
C 4.793 0.0086 6.927
C 5.4052 1.4199 6.9296
O 5.7916 1.9458 7.9568
N 5.4325 1.9757 5.6796
C 5.8122 3.2757 5.3066
C 5.6084 3.6476 3.966
C 5.9612 4.9173 3.5175
C 6.5207 5.8314 4.4142
Cl 6.9659 7.4289 3.8591
C 6.7247 5.4761 5.7488
C 6.3742 4.2031 6.1999
C 2.2911 0.0862 7.4251
C 2.3052 0.1821 8.8082
C 1.0668 0.2223 9.4678
C -0.1331 0.1743 8.7523
C -0.1371 0.0965 7.3539
C 1.085 0.0572 6.6715
Au -2.2988 0.013 -0.3198
H 4.906 -0.4097 7.933
H 5.3278 -0.6318 6.2084
H 5.0663 1.3895 4.9274
H 5.1607 2.932 3.2711
H 5.8015 5.2028 2.4769
H 7.1614 6.1993 6.439
H 6.5279 3.9186 7.238
H 3.2419 0.2485 9.3628
H 1.0475 0.299 10.5573
H -1.084 0.2071 9.2877
H -1.0655 0.0704 6.7896
21
Energy=0.39777950159309494
C -2.9701 -1.2319 1.2378
O -2.4059 -0.0046 1.6975
C -1.2648 -0.096 2.4283
C -1.3319 -0.1986 3.8241
Br -3.0284 -0.2786 4.6786
C -0.1682 -0.2341 4.5927
C 1.0654 -0.144 3.9601
C 1.1846 0.0 2.5691
C -0.0 -0.0 1.7896
S 0.0 0.0 0.0
C 2.6331 0.1399 2.1065
O 3.5396 -0.1375 2.878
N 2.8695 0.6387 0.8694
H -3.8658 -0.9664 0.6615
H -3.259 -1.8713 2.0877
H -2.2613 -1.7664 0.5858
H -0.2351 -0.3237 5.6777
H 1.9922 -0.1724 4.5336
Au -1.1776 1.9286 -0.4829
H 3.8398 0.6891 0.5821
H 2.1242 0.7321 0.1855
24
Energy=-0.8865961011884196
C 2.6653 1.1966 5.1254
O 1.9958 -0.038 4.8913
C 0.9094 0.0039 4.0644
C -0.3723 -0.0039 4.6208
C -0.5662 -0.0681 6.1164
C -0.3362 -1.4754 6.6836
C -1.456 -0.0117 3.7287
C -1.2841 -0.0021 2.3503
C -0.0 0.0 1.7697
C 1.1121 0.0 2.6588
C 2.4642 -0.0308 2.2055
N 3.5713 -0.0452 1.8399
S 0.0 0.0 0.0
H 3.1079 1.6002 4.2001
H 3.4697 0.9877 5.8427
H 1.9766 1.945 5.5548
H -1.5873 0.2699 6.3558
H 0.1217 0.6358 6.6109
H -1.0263 -2.2022 6.2268
H 0.6924 -1.8076 6.4796
H -0.4945 -1.4922 7.7737
H -2.4716 -0.0204 4.134
H -2.1575 -0.0027 1.6955
Au 2.2243 -0.0465 -0.622
17
Energy=1.1999911183982268
S 0.0 0.0 0.0
C 0.0 -0.0 1.7766
C 1.2086 0.0 2.4922
C 1.209 -0.0796 3.8813
C 0.0024 -0.1593 4.5914
C -1.2179 -0.1615 3.8822
C -1.2063 -0.0841 2.4916
C -2.5226 -0.2478 4.636
F -2.6062 -1.3739 5.3636
F -3.5753 -0.238 3.798
F -2.6798 0.7855 5.4806
O -0.0422 -0.2349 5.9359
Au -0.1439 2.2378 -0.5388
H 2.1517 0.0642 1.9468
H 2.1543 -0.0801 4.4319
H -2.1505 -0.0863 1.948
H 0.8541 -0.2266 6.2972
26
Energy=-0.5321212868947955
S 0.0 0.0 0.0
C -0.0 0.0 1.8313
C 1.3669 -0.0 2.5332
C 2.2486 -1.1112 1.9546
O 2.1082 -2.272 2.2684
O 3.1538 -0.6342 1.0999
C 4.0064 -1.509 0.2828
C 4.9731 -2.2688 1.1914
C 3.1378 -2.4468 -0.5567
C 4.7504 -0.5176 -0.6087
N 1.1446 -0.1531 3.9633
Au 1.3453 1.7871 -0.5309
H -0.5185 -0.9444 2.0744
H -0.6012 0.827 2.2317
H 1.8549 0.9682 2.3406
H 5.5498 -1.5649 1.8113
H 4.4303 -2.96 1.8482
H 5.6819 -2.8458 0.5776
H 2.3905 -1.8694 -1.1197
H 3.7757 -2.9924 -1.2689
H 2.612 -3.1728 0.0752
H 5.3206 0.1987 0.0017
H 5.4495 -1.0503 -1.2703
H 4.0368 0.0446 -1.2303
H 2.0067 0.0382 4.4739
H 0.9205 -1.1333 4.1502
15
Energy=0.9074093210972948
Cl 3.2539 1.4965 1.5204
C 2.518 -0.108 1.8129
O 3.0435 -1.1116 1.4604
C 1.1989 -0.0 2.5225
C 0.0 0.0 1.782
S 0.0 0.0 0.0
C -1.2196 0.0926 2.4699
C -1.2491 0.1838 3.8583
C -0.0595 0.1708 4.592
C 1.1721 0.0748 3.9206
Cl 2.6656 0.0596 4.807
Cl -0.121 0.2723 6.3212
Au 0.5956 -2.1781 -0.4832
H -2.1486 0.0899 1.898
H -2.1969 0.2584 4.3929
42
Energy=0.5167313813672154
S 0.0 0.0 0.0
C 0.0 0.0 1.7817
N 1.2468 0.0 2.2704
C 1.4546 0.0617 3.5819
C 0.4201 0.0991 4.5189
C -0.883 0.109 4.0274
C -1.1256 0.075 2.6478
C -2.536 0.2825 2.1763
O -2.8175 1.1285 1.3437
N -3.5197 -0.454 2.817
C -4.8847 -0.225 2.358
C -5.1594 -1.0761 1.1019
C -4.2722 -2.3329 1.122
C -4.6714 -3.3767 0.0628
C -4.2928 -2.8837 -1.3105
C -2.9857 -3.1376 -1.8081
C -2.5726 -2.5935 -3.0459
C -3.4485 -1.7849 -3.7839
C -4.736 -1.5533 -3.3031
C -5.152 -2.0952 -2.0795
C -4.1406 -2.8414 2.558
C -3.3164 -1.7996 3.3593
Au -1.6618 -1.3605 -0.8618
H 2.5017 0.0792 3.9079
H 0.6281 0.1365 5.5898
H -1.7325 0.176 4.7112
H -5.564 -0.5025 3.1795
H -5.0118 0.8428 2.1492
H -6.2244 -1.365 1.0698
H -4.9458 -0.4846 0.2007
H -3.254 -2.0092 0.833
H -4.1438 -4.3214 0.2704
H -5.7524 -3.5858 0.1162
H -2.3676 -3.895 -1.3168
H -1.5906 -2.8501 -3.4485
H -3.1258 -1.3578 -4.735
H -5.4283 -0.9365 -3.8808
H -6.1624 -1.8958 -1.7165
H -3.6269 -3.8149 2.5931
H -5.1372 -2.9917 3.0075
H -3.5881 -1.8286 4.4293
H -2.2498 -2.044 3.2852
29
Energy=4.545204189343619
C 3.4268 -0.1053 9.9725
O 4.4932 -0.0564 9.0491
C 4.2132 -0.0286 7.7247
C 2.9267 -0.02 7.1885
C 2.7151 -0.008 5.7909
C 1.3383 -0.0047 5.3225
C 0.8132 -0.0009 4.0767
S 1.6214 0.0 2.5115
C -0.0 -0.0 1.7368
S 0.0 0.0 0.0
N -1.0294 0.0001 2.51
C -0.6885 0.0002 3.8742
O -1.4892 0.0009 4.78
C 3.8322 -0.0012 4.9387
C 5.1171 0.0004 5.48
Br 6.6197 0.0311 4.3164
C 5.3417 -0.0213 6.8638
O 6.5982 -0.0854 7.3569
C 7.09 1.0665 8.0345
H 2.8077 -1.008 9.829
H 3.8813 -0.137 10.971
H 2.7806 0.7872 9.8979
H 2.0574 -0.0302 7.8443
H 0.5662 -0.0062 6.1003
Au -2.2992 -0.0048 -0.3086
H 3.724 0.0125 3.8562
H 8.125 0.8392 8.3219
H 7.0863 1.9432 7.3642
H 6.4979 1.2855 8.936
42
Energy=2.869968039109727
Br 6.0766 -3.3498 12.9558
C 5.8984 -2.2126 11.4363
C 4.6277 -1.8871 10.9617
C 4.5076 -1.0524 9.8472
C 5.6372 -0.5381 9.2026
C 6.903 -0.8883 9.6943
C 7.0441 -1.719 10.8053
C 5.5364 0.4084 8.0173
C 5.772 1.8833 8.4041
C 4.3704 2.3633 8.7894
C 3.4637 1.6758 7.761
N 4.1949 0.442 7.4222
C 3.928 -0.3764 6.3547
O 4.7491 -1.1638 5.9114
C 2.5565 -0.2701 5.7392
C 1.3828 -0.3525 6.5191
C 0.1369 -0.3285 5.9091
C 0.0404 -0.2093 4.5149
C 1.2116 -0.1325 3.7183
C 2.4676 -0.1822 4.3532
N 1.1575 0.0 2.3425
C 0.0 0.0 1.7773
N -1.1866 -0.0852 2.4666
C -1.2781 -0.1796 3.8633
O -2.3598 -0.2385 4.4146
S 0.0 0.0 0.0
H 3.7396 -2.2847 11.455
H 3.5154 -0.809 9.4639
H 7.7997 -0.5096 9.1957
H 8.0337 -1.9885 11.1767
H 6.2453 0.0676 7.2494
H 6.1385 2.4359 7.5237
H 6.5107 1.9939 9.2097
H 4.2597 3.4569 8.7758
H 4.121 2.0135 9.8036
H 2.4651 1.4673 8.1692
H 3.326 2.298 6.86
H 1.4575 -0.4621 7.6023
H -0.7863 -0.4048 6.4866
H 3.3675 -0.1544 3.7383
H -2.0677 -0.1144 1.9619
Au -1.9473 1.0752 -0.5947
22
Energy=1.0496544815542619
C -4.8675 0.5529 4.7558
C -3.7453 0.3805 3.7537
O -2.5169 0.3619 4.4704
C -1.3558 0.236 3.7954
C -1.2553 0.0964 2.4075
C -0.0 0.0 1.7756
S 0.0 0.0 0.0
C 1.1689 -0.0 2.5618
C 1.0624 0.081 3.9625
C -0.1846 0.2351 4.5685
C 2.2337 0.0422 4.8929
O 2.4879 0.8527 5.7214
Cl 3.1891 -1.4799 4.7681
Cl 2.7395 -0.0593 1.8181
H -5.8384 0.5713 4.238
H -4.8721 -0.2765 5.479
H -4.7491 1.4952 5.3115
H -3.7366 1.2089 3.0215
H -3.861 -0.5625 3.1878
H -2.1405 0.0638 1.7753
Au 1.0791 -1.9761 -0.5127
H -0.2651 0.3347 5.6513
16
Energy=1.4226633741834218
O 3.5145 -0.4335 2.5066
C 2.5311 0.2872 1.9269
O 2.7574 1.0977 1.0622
C 1.1971 -0.0 2.5414
C 1.1531 -0.1981 3.9275
C -0.0606 -0.3541 4.5924
C -1.2392 -0.3194 3.8582
C -1.2257 -0.1501 2.4664
C 0.0 -0.0 1.7799
S 0.0 0.0 0.0
Cl -2.7513 -0.1138 1.6503
F -2.4029 -0.4555 4.4898
H 4.3461 -0.1401 2.0959
H 2.087 -0.2201 4.4889
H -0.1138 -0.4995 5.6723
Au 0.1766 2.2567 -0.4352
48
Energy=3.1587845366950766
C -1.186 -1.5695 10.5161
C -0.9472 -1.5736 9.0437
C -0.0296 -0.9001 8.2834
C -0.3005 -1.1707 6.8913
C 0.4942 -0.6573 5.8238
C 0.2292 -0.3965 4.4989
C 1.4002 0.0036 3.6528
O 2.4936 0.2522 4.1208
N 1.1835 -0.0 2.2738
C -0.0 -0.0 1.781
S 0.0 0.0 0.0
N -1.1698 0.0192 2.5409
C -1.1195 -0.2645 3.9428
O -2.1643 -0.2966 4.5681
C -2.4386 0.3998 2.0059
C -3.4827 -0.5322 1.9328
C -4.7021 -0.1734 1.3561
C -4.8709 1.1255 0.8594
Cl -6.3861 1.5687 0.1179
C -3.8453 2.0682 0.9566
C -2.6315 1.7017 1.5401
C -1.3796 -2.0737 6.857
C -1.9592 -2.8443 5.7261
N -1.7572 -2.302 8.1578
C -2.8363 -3.1418 8.5502
C -4.1454 -2.8025 8.189
C -5.211 -3.6207 8.562
C -4.9606 -4.7758 9.3091
Cl -6.2904 -5.7982 9.7854
C -3.6573 -5.1226 9.6775
C -2.5958 -4.3052 9.2899
H -0.5138 -0.8429 10.9923
H -1.0028 -2.5523 10.9804
H -2.2238 -1.2871 10.7596
H 0.7364 -0.2255 8.6604
H 1.5273 -0.4074 6.0953
Au -2.0204 -0.8707 -0.7129
H -3.3331 -1.5375 2.3267
H -5.5218 -0.8899 1.2912
H -3.9975 3.0781 0.5744
H -1.8155 2.4224 1.6079
H -1.2183 -2.929 4.9185
H -2.256 -3.8545 6.0447
H -2.8336 -2.3298 5.2977
H -4.3225 -1.8898 7.6172
H -6.2345 -3.3648 8.2853
H -3.4803 -6.0314 10.2538
H -1.571 -4.5746 9.5506
28
Energy=-1.0577761108132846
O -0.8768 -1.1377 3.7584
C -0.8935 -1.05 2.5407
C 0.0 -0.0 1.8427
S 0.0 0.0 0.0
C 1.3954 0.0 2.4632
N -1.6531 -1.8259 1.729
C -2.5768 -2.8528 2.1978
C -3.2304 -3.4955 1.0037
S -2.2832 -3.9778 -0.4049
C -3.7272 -4.6434 -1.0941
C -4.7915 -4.4731 -0.2446
N -4.4826 -3.8221 0.9327
C -6.2012 -4.9116 -0.4935
C -1.8815 -3.9113 3.0685
H -0.4799 0.9749 2.051
Au 1.0016 -2.0112 -0.5175
H 1.9997 0.8236 2.0593
H 1.3097 0.1002 3.5542
H 1.9098 -0.9492 2.2417
H -1.687 -1.5489 0.7507
H -3.3908 -2.3937 2.7844
H -3.7207 -5.1074 -2.0783
H -6.5335 -5.6051 0.2956
H -6.8832 -4.0465 -0.4709
H -6.3004 -5.4124 -1.4665
H -1.0882 -4.4135 2.4934
H -2.6175 -4.6645 3.385
H -1.4406 -3.4333 3.9517
46
Energy=0.015227033333118202
O 4.0179 -0.1816 3.4358
C 3.7092 -0.1975 2.2554
N 2.4046 -0.0919 1.7833
C 1.2236 -0.0 2.504
C 1.1729 0.0685 3.9089
C -0.0565 0.1383 4.5595
C -1.2616 0.1376 3.8443
C -1.2253 0.0599 2.4565
C -0.0 -0.0 1.7703
S 0.0 0.0 0.0
N 4.6308 -0.3034 1.2414
C 6.0302 -0.5699 1.5388
C 6.9181 -0.0285 0.4215
C 8.4156 -0.2732 0.6854
C 9.2011 -0.0268 -0.6114
C 8.9402 0.71 1.7582
N 8.5941 -1.692 1.016
C 7.7824 -2.3631 2.0401
C 6.3017 -2.0632 1.7452
C 8.035 -3.8691 1.8744
C 8.1306 -1.9754 3.4964
H 2.2632 -0.0234 0.7769
H 2.109 0.0654 4.4615
H -0.0722 0.1935 5.6509
H -2.2185 0.1927 4.3671
H -2.1468 0.0465 1.8716
Au 0.5174 -2.1986 -0.5339
H 4.3056 -0.5444 0.3112
H 6.2349 -0.0363 2.4767
H 6.7332 1.048 0.2811
H 6.6451 -0.537 -0.5203
H 8.8767 -0.7317 -1.3906
H 9.0575 1.0029 -0.9743
H 10.2812 -0.1753 -0.445
H 9.9756 0.4542 2.0345
H 8.939 1.7422 1.3732
H 8.3379 0.6996 2.6753
H 9.5812 -1.9038 1.1491
H 5.6741 -2.4397 2.5671
H 6.0087 -2.5965 0.8243
H 7.8311 -4.1755 0.8382
H 9.0857 -4.1152 2.1032
H 7.3985 -4.4551 2.5554
H 7.8333 -0.9496 3.7483
H 7.6216 -2.6455 4.2069
H 9.2159 -2.0637 3.6652
41
Energy=-0.18813209546951312
O -4.2336 -5.5231 -0.515
C -4.2224 -4.4129 -1.0271
C -4.7915 -4.2216 -2.4107
C -6.0226 -4.8251 -2.7097
C -6.5785 -4.7477 -3.9844
C -5.8815 -4.0847 -4.9918
C -4.6399 -3.5002 -4.7333
C -4.1035 -3.583 -3.4458
F -2.9006 -3.038 -3.2402
F -3.9651 -2.8872 -5.7018
F -6.381 -3.9999 -6.2236
N -3.73 -3.3185 -0.3749
C -3.1391 -3.5417 0.9446
C -2.2331 -2.3815 1.3255
N -2.9859 -1.1252 1.3254
C -4.1525 -1.0557 0.4513
C -3.9269 -1.9256 -0.7787
C -2.5323 0.021 1.9013
O -3.1643 1.0744 1.866
C -1.1809 -0.0484 2.5611
C -1.0968 -0.0646 3.9568
C 0.1452 -0.0874 4.5957
C 1.3158 -0.0632 3.8329
C 1.2436 0.0 2.4408
C 0.0 -0.0 1.7876
S 0.0 0.0 0.0
H -6.5368 -5.3658 -1.9142
H -7.5412 -5.2021 -4.2227
H -2.566 -4.4777 0.9164
H -3.9307 -3.681 1.703
H -1.3889 -2.3153 0.6172
H -1.8154 -2.561 2.3252
H -5.0648 -1.3748 0.9854
H -4.2931 -0.0051 0.1646
H -4.8031 -1.856 -1.4374
H -3.0543 -1.5476 -1.3352
H -2.0182 -0.0663 4.5438
H 0.1978 -0.1144 5.6863
H 2.2921 -0.0718 4.3234
H 2.1535 0.0578 1.8404
Au -1.3942 1.7896 -0.4655
34
Energy=5.413219700624947
C 8.3903 -0.0138 13.878
O 7.8309 -0.0124 12.567
C 6.485 -0.0073 12.4995
O 5.776 -0.0041 13.4796
C 5.9859 -0.0064 11.0965
C 6.8499 -0.0099 9.9893
C 6.3336 -0.0088 8.6992
C 4.9406 -0.0043 8.4825
C 4.0792 -0.0009 9.5984
C 4.5986 -0.0019 10.8873
C 4.4045 -0.0032 7.1321
C 4.9964 -0.0027 5.8806
C 3.9455 -0.0014 4.931
C 2.7586 -0.0012 5.6491
O 3.0559 -0.0022 6.9851
C 1.3736 -0.0006 5.3064
C 0.814 -0.0001 4.0716
S 1.6252 0.0 2.5124
C -0.0 0.0 1.7372
N -1.0259 -0.0001 2.513
C -0.6822 -0.0 3.8793
O -1.4794 0.0001 4.788
S 0.0 0.0 0.0
H 8.0683 -0.9041 14.4392
H 9.4792 -0.0181 13.7468
H 8.0753 0.8796 14.4382
H 7.9276 -0.0135 10.1524
H 7.0166 -0.0118 7.8479
H 3.0005 0.0026 9.4392
H 3.9416 0.0008 11.7585
H 6.063 -0.003 5.6724
H 4.0439 -0.0005 3.8488
H 0.6617 -0.0007 6.1378
Au -2.2989 -0.0025 -0.3086
19
Energy=0.19564129874053932
N -3.637 -0.6894 4.929
C -2.6023 -0.5286 4.4294
C -1.3165 -0.3449 3.818
C -1.233 -0.1818 2.4285
C -0.0 0.0 1.7801
S 0.0 0.0 0.0
C 1.1478 0.0 2.5964
C 1.0847 -0.184 3.9756
C -0.1456 -0.3434 4.6048
C -0.2308 -0.477 6.1086
F 1.0003 -0.6949 6.6332
F -0.7142 0.6771 6.6395
N 2.5013 0.1823 2.0377
O 2.7011 1.1636 1.3437
O 3.3333 -0.6488 2.3483
H -2.1416 -0.1985 1.8264
Au 0.5629 2.1837 -0.5005
H 2.0045 -0.2128 4.5587
H -0.8969 -1.2993 6.4209
27
Energy=2.5328579380298337
S 0.0 0.0 0.0
C -0.0 -0.0 1.7489
N -1.1132 0.0093 2.3878
C -0.9493 0.0415 3.7846
O -1.873 0.0928 4.5633
C 0.5156 -0.0061 4.1787
S 1.5042 -0.0 2.6995
C 1.0919 -0.1556 5.3982
C 0.5272 -0.16 6.7473
C -0.5603 0.6337 7.0975
C -1.0263 0.6979 8.4266
C -0.4104 -0.0333 9.4187
C 0.6986 -0.8693 9.1191
C 1.3345 -1.6368 10.1333
C 2.399 -2.4606 9.8399
C 2.8644 -2.5558 8.5074
C 2.2667 -1.8239 7.501
C 1.1792 -0.9473 7.7686
Au 2.2497 -0.0264 -0.5103
H 2.1778 -0.2936 5.376
H -1.0564 1.2234 6.3314
H -1.8789 1.3387 8.6615
H -0.767 0.0162 10.4507
H 0.956 -1.5626 11.156
H 2.8781 -3.046 10.6279
H 3.6978 -3.2215 8.2709
H 2.627 -1.9434 6.4788
23
Energy=-0.908829284748249
Br -2.9241 0.0134 2.3247
C -1.0575 -0.0008 2.7092
C -0.7068 -0.018 4.0623
N 0.555 -0.0109 4.4864
C 1.4942 0.0111 3.5355
N 1.2548 -0.0 2.2271
C -0.0 -0.0 1.7663
S 0.0 0.0 0.0
C 2.9503 0.0222 3.9628
C 3.593 -1.3395 3.6493
S 5.4105 -1.2807 3.7787
C 5.7099 0.1191 2.6103
C 4.4084 0.8208 2.2261
O 3.6229 1.1183 3.363
H -1.4938 -0.0343 4.8239
Au -2.1967 -0.1105 -0.6811
H 2.9765 0.1933 5.0483
H 3.2875 -1.6903 2.6523
H 3.2516 -2.0858 4.3805
H 6.378 0.821 3.1307
H 6.2248 -0.2505 1.709
H 4.6424 1.7875 1.7538
H 3.8349 0.2327 1.491
38
Energy=2.00177225981404
C 0.4931 0.9571 11.2545
O 1.6715 0.9341 10.4781
C 1.577 0.7807 9.1397
C 0.368 0.6356 8.4387
C 0.3703 0.4823 7.0543
C 1.577 0.4693 6.3227
C 1.7089 0.316 4.885
C 0.808 0.1864 3.8738
N 1.1865 0.0 2.4998
C 2.5035 0.0256 1.9849
O 3.3782 0.6762 2.5164
C 2.7716 -0.8456 0.8075
C 3.7335 -0.4288 -0.1273
C 4.0687 -1.243 -1.2035
C 3.4572 -2.4934 -1.3151
F 3.7821 -3.2815 -2.3433
C 2.5269 -2.9478 -0.3825
C 2.1801 -2.1139 0.6777
C 0.0 0.0 1.7553
S 0.0 0.0 0.0
N -1.0751 0.0966 2.481
C -0.6903 0.1826 3.8295
O -1.4748 0.2457 4.7555
C 2.7846 0.6162 7.0534
C 2.7915 0.7688 8.4286
H 0.8091 1.0911 12.2972
H -0.1679 1.7938 10.9677
H -0.0712 0.012 11.1674
H -0.5868 0.6406 8.9637
H -0.5717 0.3737 6.5192
H 2.7478 0.3318 4.5523
H 4.2071 0.5456 0.002
H 4.7977 -0.9352 -1.9546
H 2.0873 -3.9391 -0.5009
H 1.4545 -2.4557 1.4173
Au -2.2785 0.4022 -0.2337
H 3.7348 0.6098 6.5134
H 3.7221 0.8823 8.9869
21
Energy=0.9473562469251513
C -2.8719 1.2597 1.3796
O -2.4043 0.0149 1.9094
C -1.1873 0.0669 2.5463
C -0.0 -0.0 1.7788
S 0.0 0.0 0.0
C 1.2438 -0.0 2.4268
C 1.2907 0.0948 3.8135
C 0.1354 0.1505 4.5783
C -1.1187 0.1221 3.9519
C -2.306 0.1629 4.899
O -2.1436 0.4086 6.0832
N -3.5252 -0.1035 4.3636
F 2.4844 0.1105 4.4211
H -2.1358 1.6844 0.6816
H -3.8007 1.0403 0.8363
H -3.0776 1.9692 2.1983
Au -1.3558 -1.7956 -0.5109
H 2.1674 -0.0777 1.8521
H 0.1754 0.2142 5.666
H -4.314 -0.1384 4.9974
H -3.6097 -0.3714 3.3897
28
Energy=2.431776599302357
O 2.0689 -0.0007 9.9921
C 0.9609 -0.0013 10.7551
O 0.9974 -0.0021 11.9631
C -0.2973 -0.0009 9.9503
C -1.5193 -0.0013 10.6418
C -2.7157 -0.0009 9.9269
C -2.7009 -0.0002 8.531
C -1.4769 0.0 7.8477
N -1.4936 0.0005 6.4421
N -0.3896 0.0004 5.7658
C -0.3264 0.0004 4.457
C -1.4391 0.0003 3.5249
O -2.6864 0.0004 4.0363
N -1.3016 0.0001 2.2417
C 0.0 0.0 1.7611
S 0.0 0.0 0.0
N 1.1003 0.0 2.449
C 1.0529 0.0002 3.8443
O 2.0559 0.0003 4.5246
C -0.2667 -0.0003 8.5531
H 2.829 -0.0011 10.5975
H -1.5035 -0.0018 11.7323
H -3.671 -0.0011 10.4557
H -3.6388 0.0001 7.969
H -2.3986 0.0008 5.9628
H -3.2979 0.0002 3.2772
Au 2.2856 0.0001 -0.3427
H 0.6746 -0.0 8.006
21
Energy=3.8639205540202175
C 2.4613 0.0039 9.9357
C 1.5177 0.0023 8.7891
C 0.1432 0.0008 8.7028
C -0.1836 -0.0001 7.3205
C 1.0181 0.0008 6.6301
C 1.4576 0.0006 5.2719
C 0.7635 -0.0 4.0985
S 1.5951 0.0 2.5317
C -0.0 -0.0 1.7418
S 0.0 0.0 0.0
N -1.0387 -0.0 2.5078
C -0.7179 -0.0003 3.8752
O -1.5542 -0.0006 4.7573
O 2.0512 0.0022 7.5494
H 3.1159 -0.8833 9.9123
H 1.9059 0.0035 10.883
H 3.1135 0.8929 9.9117
H -0.5487 0.0004 9.542
H -1.1588 -0.0013 6.8468
H 2.5502 0.0011 5.1989
Au -2.3015 0.0021 -0.2929
25
Energy=4.295920355184784
C 7.711 0.0058 6.6596
O 6.5477 0.0036 7.4587
C 5.3363 0.0027 6.8625
C 4.2202 0.0014 7.7194
C 2.9399 0.0006 7.1923
C 2.7096 0.0009 5.7953
C 1.3363 0.0002 5.3274
C 0.8065 -0.0 4.082
S 1.6181 -0.0 2.5158
C 0.0 -0.0 1.739
S 0.0 0.0 0.0
N -1.03 0.0 2.5103
C -0.691 -0.0001 3.8775
O -1.497 -0.0003 4.7792
C 3.841 0.002 4.9559
C 5.1351 0.0029 5.4716
H 7.7672 -0.8921 6.019
H 7.7647 0.9045 6.0201
H 8.564 0.0065 7.3503
H 4.3941 0.0012 8.7966
H 2.0814 -0.0002 7.8683
H 0.565 -0.0 6.1063
Au -2.3001 0.0028 -0.3017
H 3.7228 0.0024 3.872
H 5.9793 0.0039 4.7831
19
Energy=1.7379928044357986
C -2.9512 1.1797 1.4231
O -2.4138 -0.0344 1.9611
C -1.187 0.0527 2.5393
C -0.0 -0.0 1.7749
S 0.0 0.0 0.0
C 1.2323 -0.0 2.4495
C 1.3007 0.0726 3.8387
C 0.1216 0.1045 4.5855
C -1.1238 0.0871 3.9424
C -2.4239 0.1269 4.6835
O -3.2009 1.0237 4.6921
Cl -2.7626 -1.4074 5.5531
Cl 0.2092 0.1987 6.3221
H -3.8938 0.9078 0.9313
H -3.1489 1.893 2.2383
H -2.2638 1.6165 0.683
Au -1.4159 -1.7592 -0.4869
H 2.1502 -0.0614 1.8619
H 2.2624 0.0901 4.3522
38
Energy=2.8255391224871738
C 4.5033 -0.0138 8.8243
C 3.1381 -0.0186 8.2254
C 2.727 -0.016 6.921
C 1.2817 -0.0051 6.8994
C 0.3197 -0.0017 5.8501
C 0.3188 -0.0013 4.4712
C 1.4247 -0.0006 3.5468
O 2.6795 0.0002 4.0086
N 1.2837 0.0 2.2511
C 0.0 -0.0 1.7659
S 0.0 0.0 0.0
N -1.1115 0.0002 2.4435
C -1.0531 -0.0002 3.8302
O -2.0685 0.0004 4.5086
C 0.8633 -0.0002 8.2527
C -0.4974 0.0007 8.8611
N 1.9866 -0.0079 9.0302
C 1.9974 -0.0036 10.4564
C 2.1874 -1.199 11.1564
C 2.2058 -1.1993 12.5524
C 2.0281 0.0049 13.2413
I 2.0511 0.0112 15.3614
C 1.8356 1.2049 12.5492
C 1.8242 1.1963 11.1531
H 4.6921 -0.9108 9.4373
H 4.6611 0.8603 9.4779
H 5.2554 0.0164 8.0246
H 3.3723 -0.0176 6.0528
H -0.7175 0.0019 6.2036
H 3.2434 0.0013 3.214
Au -2.2861 -0.0009 -0.3366
H -0.6862 0.9273 9.428
H -1.2745 -0.0883 8.0929
H -0.6161 -0.8365 9.568
H 2.3174 -2.1304 10.602
H 2.3537 -2.133 13.0966
H 1.6993 2.1419 13.0907
H 1.6833 2.1246 10.5961
22
Energy=1.5526488950360933
C -4.6805 0.4912 5.0369
C -3.624 0.3448 3.9623
O -2.356 0.2957 4.607
C -1.2344 0.1798 3.8773
C -1.215 0.0895 2.4799
C 0.0 -0.0 1.7827
S 0.0 0.0 0.0
C 1.2077 -0.0 2.4869
C 1.2014 0.0497 3.8883
C -0.0088 0.1561 4.5853
Br -0.0629 0.3575 6.4666
C 2.5469 0.0021 4.5428
O 3.4467 0.7443 4.3259
Cl 2.7669 -1.4312 5.6097
H -5.6811 0.533 4.5807
H -4.5187 1.4136 5.6144
H -4.6461 -0.3613 5.7314
H -3.7784 -0.579 3.3753
H -3.6497 1.1969 3.2588
H -2.142 0.0956 1.91
Au -0.0319 -2.2489 -0.499
H 2.1547 -0.0562 1.9501
33
Energy=0.7500554156323016
C -2.9673 -1.4751 1.338
C -2.4957 -0.0527 1.6127
N -1.2384 -0.0106 2.3792
C 0.0 0.0 1.7775
S 0.0 0.0 0.0
N 1.136 -0.0 2.4133
C 1.2049 -0.0272 3.7992
O 2.2682 -0.0841 4.3936
C -0.0946 -0.0075 4.509
C -1.2996 -0.0425 3.7763
N -2.5038 -0.1008 4.3343
C -2.5894 -0.127 5.6711
C -1.4517 -0.0829 6.5022
C -0.1965 -0.0085 5.9102
C 1.0233 0.0371 6.795
O 1.4032 -0.8981 7.449
O 1.5503 1.2669 6.8487
C -3.9281 -0.2068 6.2315
C -5.1724 -0.2746 5.6492
C -6.1148 -0.3399 6.7207
C -5.378 -0.3071 7.875
O -4.0578 -0.2267 7.5897
H -3.9009 -1.4545 0.7544
H -3.1627 -2.004 2.2824
H -2.2158 -2.0355 0.7619
H -3.241 0.4921 2.2036
H -2.3277 0.5025 0.6797
Au 2.318 0.0407 -0.2145
H -1.5645 -0.1068 7.5853
H 2.3583 1.2039 7.3871
H -5.3666 -0.2777 4.5805
H -7.1979 -0.4034 6.6466
H -5.6399 -0.3323 8.9293
31
Energy=1.5839213960441925
C 5.2824 -0.21 3.0139
C 4.6226 -1.3321 3.809
C 4.1925 -2.505 2.9411
O 3.4351 -0.8527 4.4576
C 3.4775 -0.1481 5.6093
C 4.6564 0.1166 6.321
C 4.6073 0.7774 7.5505
C 3.3842 1.1758 8.0932
C 2.2149 0.9211 7.3823
C 2.2253 0.2906 6.1215
C 0.9433 0.1324 5.4478
C 0.5754 0.0094 4.1521
S 1.5292 0.0 2.6729
C 0.0 -0.0 1.7493
S 0.0 0.0 0.0
N -1.1078 -0.0221 2.397
C -0.9042 -0.0184 3.7911
O -1.7895 -0.0256 4.6122
H 5.5408 0.6441 3.6566
H 6.2056 -0.5719 2.5355
H 4.5977 0.1503 2.2306
H 5.3172 -1.7031 4.5824
H 5.0694 -2.9537 2.4502
H 3.6993 -3.2745 3.5524
H 3.4814 -2.1757 2.169
H 5.6208 -0.2009 5.9283
H 5.5382 0.9704 8.0888
H 3.3425 1.6801 9.0604
H 1.2506 1.2305 7.7926
H 0.0702 0.1982 6.1084
Au 2.2607 -0.0175 -0.4828
28
Energy=4.211609649947945
S 0.0 0.0 0.0
C 0.0 -0.0 1.7407
N -1.0382 0.0001 2.5077
C -0.7163 0.0007 3.8739
O -1.5505 0.0026 4.7577
C 0.767 -0.001 4.0962
S 1.5967 0.0 2.5301
C 1.4615 -0.0035 5.2689
C 1.0191 -0.0053 6.6267
C -0.1845 0.0071 7.3193
C 0.1431 0.0035 8.6958
C 1.526 -0.0088 8.7824
O 2.0494 -0.0173 7.5392
C 2.4082 -0.0438 9.9458
C 1.9257 -0.657 11.1223
C 2.6865 -0.7187 12.2848
C 3.9721 -0.1695 12.3016
C 4.4766 0.445 11.1567
C 3.7056 0.5147 9.9924
Cl 4.3977 1.3627 8.6312
Au -2.3012 0.0062 -0.2959
H 2.5542 -0.0035 5.2001
H -1.1608 0.0256 6.8485
H -0.5506 0.0332 9.5323
H 0.9347 -1.1134 11.0993
H 2.2819 -1.2066 13.1738
H 4.5847 -0.2172 13.2045
H 5.4725 0.8899 11.1523
19
Energy=3.821408978554171
S 0.0 0.0 0.0
C -0.0 0.0 1.74
N -1.0222 -0.0001 2.518
C -0.6815 -0.0001 3.8886
O -1.4877 -0.0003 4.7908
C 0.8084 0.0004 4.0853
S 1.6202 -0.0 2.5175
C 1.3679 0.0013 5.3219
C 2.7378 0.003 5.7262
C 3.2496 0.002 7.0314
C 4.6595 0.0044 6.9483
C 4.9878 0.0069 5.5974
N 3.8311 0.0059 4.8755
Au -2.2994 0.0013 -0.302
H 0.6351 0.0008 6.1355
H 2.6411 -0.0003 7.9335
H 5.3667 0.0043 7.7745
H 5.9584 0.0094 5.1063
H 3.7821 0.0083 3.8644
21
Energy=0.20907943317217115
N -3.363 -0.2596 5.2363
C -2.3517 -0.1942 4.6722
C -1.1143 -0.1306 3.9493
C -1.1847 -0.0664 2.5435
O -2.4066 0.0051 1.9614
C -2.9596 -1.2282 1.4903
C -0.0 0.0 1.775
S 0.0 0.0 0.0
C 1.234 0.0 2.4419
C 1.3044 -0.0875 3.8324
C 0.1411 -0.1471 4.5961
C 0.2204 -0.2247 6.1044
F -0.4011 0.815 6.6823
F -0.3563 -1.3453 6.5673
F 1.4936 -0.2214 6.5309
H -3.1537 -1.9073 2.3362
H -3.9083 -0.9751 1.0008
H -2.2845 -1.7056 0.7633
Au -1.5512 1.6375 -0.4978
H 2.1492 0.0755 1.8519
H 2.2735 -0.0923 4.3306
30
Energy=-0.8167178501695819
C -2.7993 1.6758 1.7032
C -2.5086 0.2075 1.9972
N -1.1537 0.0012 2.501
C -0.0 -0.0 1.7569
S 0.0 0.0 0.0
N 1.0514 -0.0 2.5561
N 0.5985 0.0155 3.8456
C -0.7144 0.0203 3.818
C -1.6035 0.0677 4.9922
C -1.4954 1.1267 5.8788
C -2.3326 1.2162 7.0159
C -3.283 0.2498 7.2617
C -3.415 -0.8673 6.3926
C -2.552 -0.9748 5.2518
C -2.6726 -2.1468 4.4571
C -3.6182 -3.0919 4.785
C -4.4475 -2.8658 5.9148
N -4.3515 -1.8102 6.6905
H -2.6993 2.2806 2.6174
H -3.8262 1.7898 1.3232
H -2.1046 2.0677 0.9452
H -3.2076 -0.1857 2.7461
H -2.6217 -0.4073 1.0909
Au 2.3127 -0.0951 -0.1975
H -0.7513 1.9009 5.6835
H -2.2246 2.066 7.6937
H -3.9524 0.2973 8.122
H -2.0073 -2.2946 3.6041
H -3.7317 -4.006 4.1987
H -5.2131 -3.606 6.179
24
Energy=0.11047639334566253
C -3.0783 -1.3823 1.7285
C -2.527 0.0141 1.9927
N -1.1545 -0.0102 2.4937
C 0.0 -0.0 1.7549
S 0.0 0.0 0.0
N 1.0519 0.0 2.5588
N 0.5911 -0.0176 3.8419
C -0.7225 -0.0404 3.8023
C -1.5959 -0.0073 4.9948
S -2.1137 1.7001 5.442
O -3.002 1.5934 6.605
O -2.5739 2.3492 4.202
C -0.5771 2.4899 5.944
H -2.4627 -1.9125 0.986
H -3.0995 -1.9846 2.6505
H -4.106 -1.3149 1.3405
H -3.1268 0.5776 2.719
H -2.5177 0.6135 1.07
Au 2.3028 0.1787 -0.2223
H -1.0737 -0.4197 5.8676
H -2.5558 -0.5275 4.8681
H -0.2726 2.0732 6.9121
H -0.8177 3.5577 6.0325
H 0.1843 2.3128 5.1733
18
Energy=1.2566606660256987
F 2.5108 0.0742 4.4089
C 1.319 0.0955 3.8116
C 1.2486 0.0 2.428
C 0.0 0.0 1.7913
S 0.0 0.0 0.0
C -1.1849 0.1137 2.5604
C -1.0738 0.2616 3.9559
C 0.1749 0.225 4.5876
C -2.2348 0.584 4.8566
O -2.8396 1.6003 4.8808
Cl -2.5507 -0.7349 6.043
C -2.5472 0.022 1.8882
F -2.8006 1.0792 1.1113
F -3.541 -0.0618 2.7911
F -2.6446 -1.0833 1.1303
H 2.163 -0.0805 1.8403
Au 0.0168 -2.2536 -0.4773
H 0.2594 0.3084 5.6715
22
Energy=2.7474189983743376
O -0.9098 -2.0125 6.0134
C -0.6338 -1.0959 6.9632
C -1.2722 -1.1044 8.2104
C -0.9073 -0.2085 9.2125
C 0.1283 0.6993 8.9742
Cl 0.6195 1.8104 10.2326
C 0.7699 0.7233 7.7393
C 0.3743 -0.1389 6.701
C 1.065 -0.0384 5.4109
C 0.5289 -0.0528 4.1701
S 1.5128 -0.0 2.6964
C 0.0 0.0 1.7482
S 0.0 0.0 0.0
N -1.111 -0.0049 2.3893
C -0.9402 -0.0028 3.7867
O -1.8491 0.073 4.577
H -1.7665 -2.4231 6.1888
H -2.0602 -1.8385 8.4006
H -1.4099 -0.2215 10.1804
H 1.5683 1.4458 7.5628
H 2.1501 0.1017 5.4826
Au 2.2499 -0.0194 -0.5113
40
Energy=2.036181977395554
O 5.146 -1.9206 8.5277
C 4.8521 -1.4051 7.4663
C 4.2411 0.0048 7.3947
N 2.886 -0.0064 6.8811
C 1.7016 -0.0749 7.637
C 1.5761 -0.1658 9.0146
C 0.2772 -0.2063 9.5454
C -0.8441 -0.1632 8.712
C -0.7067 -0.0901 7.3201
C 0.5783 -0.0506 6.7652
C 1.1048 -0.0104 5.3993
C 0.5634 -0.003 4.1492
S 1.535 0.0 2.6769
C -0.0 -0.0 1.7411
N -1.1079 -0.0026 2.3917
C -0.9144 -0.0029 3.7767
O -1.8124 -0.0007 4.5858
S 0.0 0.0 0.0
C 2.5999 -0.0114 5.5409
O 3.436 -0.0434 4.641
N 4.9929 -1.9727 6.2278
C 5.4042 -3.2747 5.9019
C 5.3207 -3.6578 4.551
C 5.716 -4.9352 4.1619
C 6.1956 -5.853 5.0998
C 6.2684 -5.4579 6.4372
C 5.8823 -4.1845 6.8585
Cl 6.8635 -6.5904 7.6294
H 4.8464 0.6423 6.7315
H 4.251 0.4278 8.405
H 2.4517 -0.228 9.6619
H 0.1477 -0.2793 10.6276
H -1.8443 -0.1963 9.1484
H -1.5738 -0.068 6.6652
Au 2.2553 0.0296 -0.4985
H 4.6986 -1.3931 5.4397
H 4.9354 -2.9481 3.8146
H 5.6467 -5.2247 3.1108
H 6.5065 -6.8562 4.8074
H 5.9438 -3.8959 7.9039
24
Energy=-1.3295505096916467
C -1.9677 -2.9364 2.6111
C -2.5713 -2.4555 1.3193
C -2.8949 -3.3747 0.3087
N -3.4235 -3.056 -0.8722
C -3.6655 -1.7679 -1.1139
C -3.3864 -0.7605 -0.1893
C -2.83 -1.0973 1.0482
C -2.53 -0.0046 2.0507
N -1.1489 0.0024 2.511
C -0.7002 0.0035 3.8135
N 0.6039 0.0026 3.849
N 1.0536 -0.0 2.5552
C -0.0 -0.0 1.7559
S 0.0 0.0 0.0
H -0.8979 -2.6816 2.6798
H -2.4604 -2.4891 3.4889
H -2.057 -4.0288 2.6965
H -2.7086 -4.4413 0.4862
H -4.0972 -1.5181 -2.0897
H -3.5861 0.2844 -0.4387
H -2.7716 0.9748 1.6091
H -3.1589 -0.1236 2.947
H -1.3718 -0.0031 4.671
Au 2.2992 0.2486 -0.2113
37
Energy=0.26010034094175566
C -4.7443 2.6073 8.3805
C -5.9342 2.0448 7.5957
C -7.2128 2.1163 8.4383
C -5.6591 0.6017 7.1062
C -6.7773 0.0252 6.2351
N -4.3963 0.5147 6.3833
C -3.2614 -0.0095 6.9293
O -3.2085 -0.4523 8.0672
C -2.044 0.0004 6.0388
C -0.7833 -0.0333 6.6718
C 0.3752 -0.0268 5.9118
C 0.2993 -0.0072 4.5094
C -0.9588 0.0015 3.8577
C -2.1257 0.005 4.6485
N -1.0833 0.001 2.4796
C -0.0 0.0 1.7708
S 0.0 0.0 0.0
N 1.2611 0.0 2.3207
C 1.5262 -0.0046 3.7005
O 2.6687 -0.0066 4.1125
H -4.5148 1.9744 9.2522
H -3.8358 2.6589 7.7633
H -4.9632 3.6247 8.7406