21
Energy=2.4431722968648053
F 1.3979 2.0329 7.3341
C 2.4602 1.288 7.0043
C 3.6717 1.5416 7.6312
C 4.7782 0.7632 7.2844
C 4.6549 -0.2535 6.3383
C 3.4214 -0.4854 5.7226
Cl 3.3062 -1.8393 4.6296
C 2.2831 0.2962 6.017
C 0.946 0.1557 5.436
C 0.5668 0.0263 4.15
S 1.533 -0.0 2.6815
C 0.0 0.0 1.7442
S 0.0 0.0 0.0
N -1.1076 -0.0136 2.391
C -0.9161 -0.0062 3.7836
O -1.7981 -0.0117 4.6046
H 3.7296 2.3394 8.3726
H 5.7424 0.943 7.7641
H 5.5031 -0.8878 6.0802
H 0.1042 0.2624 6.1291
Au 2.2538 -0.0186 -0.5028
19
Energy=1.1999927970112858
F 2.5164 -0.1396 4.3893
C 1.3186 -0.115 3.7996
C 1.2497 0.0 2.4159
C 0.0 0.0 1.7747
S 0.0 0.0 0.0
C -1.1645 -0.0811 2.5661
C -1.0819 -0.1158 3.9674
C 0.1757 -0.1743 4.587
C -2.2491 -0.0939 4.9041
O -2.3057 -0.697 5.926
Cl -3.5345 1.0763 4.4594
O -2.3946 -0.065 1.9355
C -3.0486 -1.241 1.7334
F -2.2924 -2.1426 1.1074
F -4.116 -0.9755 0.9968
F -3.4456 -1.793 2.8898
H 2.1676 0.0875 1.8334
Au -1.6202 1.5481 -0.5504
H 0.2535 -0.2389 5.6721
20
Energy=-0.6864150954356478
F 4.2546 -0.4769 1.0104
C 3.2042 -0.9309 1.7042
O 2.3979 0.1709 1.9254
C 1.1854 0.0 2.5487
C 1.1123 -0.0518 3.947
Br 2.704 0.0409 4.9871
C -0.1178 -0.1527 4.5983
C -1.2862 -0.1675 3.8412
C -1.242 -0.0734 2.4487
C -0.0 0.0 1.7772
S 0.0 0.0 0.0
C -2.5297 -0.0628 1.6599
F -3.5953 0.1289 2.4839
F -2.7138 -1.2588 1.0327
F 2.5635 -1.853 0.9628
H 3.5436 -1.4011 2.6422
H -0.1536 -0.2038 5.6867
H -2.2562 -0.2262 4.3352
Au 1.6012 1.5653 -0.5662
H -2.5321 0.7259 0.8897
24
Energy=0.04642771375731996
C -3.6142 -0.0826 2.3366
O -2.35 -0.047 1.7075
C -1.2364 -0.0656 2.4605
C -1.257 -0.1531 3.8582
C -0.058 -0.1819 4.5726
C 1.1739 -0.0892 3.9103
C 1.2044 0.0 2.5122
C -0.0 0.0 1.7644
S 0.0 0.0 0.0
O 2.3444 0.1339 1.8058
C 3.5872 0.1211 2.4723
C -0.1524 -0.2806 6.0679
O -1.1409 0.0057 6.6902
O 0.9553 -0.7269 6.7053
H -3.7582 0.7798 3.0101
H -3.7554 -1.0135 2.9127
H -4.3585 -0.0403 1.5314
H -2.186 -0.198 4.4223
H 2.1031 -0.037 4.4766
Au 1.034 1.9988 -0.512
H 3.7451 -0.8259 3.0178
H 4.355 0.2193 1.6946
H 3.6807 0.964 3.1794
H 1.5909 -1.0654 6.059
22
Energy=1.2835019408391732
C 3.8364 -0.0124 3.5918
O 2.6523 -0.1303 4.3597
C 1.456 -0.1336 3.7451
C 1.2797 0.0 2.364
C 0.0 0.0 1.7835
S 0.0 0.0 0.0
C -1.1402 -0.14 2.6247
C -0.9358 -0.2682 4.0115
C 0.3266 -0.2587 4.5813
C 0.5222 -0.4237 6.0658
F 0.9683 -1.6803 6.3469
F -0.6551 -0.2517 6.7239
C -2.5164 -0.1236 2.0797
O -2.8884 0.3262 1.0425
Cl -3.7569 -0.9111 3.1652
H 3.8656 0.9431 3.0413
H 3.9338 -0.8463 2.8767
H 4.6698 -0.047 4.3041
H 2.1345 0.1116 1.7002
Au -0.9947 2.0106 -0.5451
H -1.799 -0.3702 4.6659
H 1.2579 0.2898 6.472
18
Energy=1.5249153162910165
N 3.1469 0.1466 5.5047
C 2.2118 0.1172 4.8182
C 1.0424 0.103 3.9819
C -0.2157 0.2144 4.5983
C -1.354 0.2212 3.7968
Cl -2.9241 0.3557 4.5387
C -1.2545 0.1094 2.4094
C -0.0 0.0 1.7854
C 1.1677 -0.0 2.5799
C 2.5494 -0.1761 1.9848
O 2.9273 -1.249 1.5364
N 3.3283 0.9274 2.0161
S 0.0 0.0 0.0
H -0.295 0.2943 5.6818
H -2.1567 0.1004 1.7976
H 3.0128 1.7928 2.4335
H 4.2887 0.8524 1.6987
Au 1.1355 -1.9701 -0.4462
27
Energy=-0.5488987966479604
C -2.5015 0.1342 1.9745
N -1.155 0.0039 2.4997
C 0.0 0.0 1.7561
S 0.0 0.0 0.0
N 1.0515 0.0 2.5558
N 0.5979 0.0022 3.8391
C -0.7186 -0.0059 3.8179
C -1.5648 -0.0037 5.0164
C -2.8167 -0.6474 5.0661
C -3.5815 -0.6464 6.2369
C -3.0838 -0.0014 7.3659
C -1.833 0.6228 7.3307
C -1.0664 0.6296 6.1731
C -1.5548 1.2022 8.6931
O -2.7575 1.0215 9.4303
C -3.6551 0.1554 8.7501
H -2.9526 -0.8482 1.7641
H -3.1282 0.6705 2.6977
H -2.4632 0.7099 1.0391
Au 2.2996 0.2482 -0.2045
H -3.1889 -1.1858 4.1941
H -4.5481 -1.1561 6.2575
H -0.0863 1.1072 6.1283
H -0.7073 0.6827 9.1853
H -1.3055 2.2779 8.6588
H -4.6657 0.6032 8.7493
H -3.7302 -0.8233 9.2682
24
Energy=0.43209132228081565
C 3.4596 -0.0096 6.7132
C 2.0449 -0.0879 6.1799
O 2.1078 -0.0006 4.7597
C 0.9769 -0.0553 4.0209
C -0.2948 -0.1736 4.5917
C -1.4198 -0.2059 3.7536
C -2.7285 -0.3209 4.3341
N -3.7827 -0.4151 4.8102
C -1.2767 -0.1046 2.3662
C 0.0 -0.0 1.7873
C 1.1437 -0.0 2.6146
C 2.5683 0.1001 2.118
F 2.7839 -0.6216 0.9941
F 2.8877 1.4072 1.8348
S 0.0 0.0 0.0
H 3.4517 -0.0653 7.8122
H 4.0683 -0.8409 6.3268
H 3.9344 0.9371 6.4149
H 1.427 0.7393 6.5732
H 1.5614 -1.0378 6.4717
H -0.4306 -0.2313 5.6689
H -2.1557 -0.0945 1.7226
H 3.2735 -0.2431 2.8858
Au 1.0662 1.9633 -0.5556
35
Energy=-0.9900047652656616
C 3.0202 1.0877 1.3958
C 2.5294 -0.1534 2.1414
N 1.1239 -0.0 2.5534
C 0.0 0.0 1.7602
S 0.0 0.0 0.0
N -1.0832 0.0246 2.5193
N -0.6887 0.0451 3.82
C 0.6276 0.0395 3.8528
C 1.4239 0.0853 5.0796
C 2.5708 0.8324 5.2562
S 3.2051 0.6813 6.8556
C 1.9192 -0.3981 7.3182
C 1.0481 -0.6284 6.2793
C -0.1546 -1.5228 6.4337
C -0.0562 -2.3873 7.697
C 0.4026 -1.5677 8.9074
C 1.8141 -1.0031 8.6893
C 2.7435 -1.4555 1.3685
H 4.0906 0.9877 1.1601
H 2.4709 1.2286 0.4525
H 2.881 1.9926 2.0069
H 3.0839 -0.2357 3.0849
Au -2.3187 0.0717 -0.1831
H 3.0443 1.5073 4.5464
H -1.0616 -0.8955 6.4576
H -0.274 -2.1499 5.5362
H 0.6641 -3.208 7.5273
H -1.0297 -2.8606 7.9004
H -0.3018 -0.7328 9.068
H 0.3862 -2.1801 9.8229
H 2.0573 -0.2568 9.4636
H 2.5603 -1.8121 8.7988
H 3.8167 -1.591 1.1652
H 2.3908 -2.3161 1.9562
H 2.2089 -1.4538 0.4071
35
Energy=0.4540275075652453
Cl 8.737 -0.0815 -0.2068
C 7.0421 -0.1562 0.1918
C 6.1495 -0.7572 -0.6994
C 4.7957 -0.8112 -0.3709
C 4.325 -0.2729 0.8381
C 5.2417 0.3345 1.7183
C 6.5937 0.3918 1.4016
C 2.9001 -0.3627 1.1575
N 2.4553 0.0641 2.2812
N 1.13 0.0 2.5692
C -0.0 -0.0 1.754
S 0.0 0.0 0.0
N -1.0696 0.0888 2.5184
N -0.6765 0.1444 3.8217
C 0.6344 0.1001 3.873
C 1.4198 0.1386 5.1119
C 0.7858 0.6439 6.2623
C 1.4745 0.6898 7.4716
C 2.7935 0.2361 7.5538
C 3.4411 -0.2836 6.4237
C 2.7427 -0.3274 5.2108
C 4.8517 -0.8107 6.516
H 6.5175 -1.1753 -1.637
H 4.0922 -1.2804 -1.0634
H 4.8724 0.763 2.6514
H 7.3088 0.8609 2.0787
H 2.2493 -0.8297 0.4026
Au -2.269 0.4868 -0.197
H -0.2431 0.9958 6.1828
H 0.9804 1.0902 8.3602
H 3.3271 0.2834 8.5072
H 3.237 -0.7337 4.3307
H 5.3137 -0.9026 5.5218
H 4.872 -1.8102 6.9838
H 5.4873 -0.1539 7.1304
20
Energy=3.309896332750814
O 0.8394 -0.007 11.1297
N 1.4981 -0.0063 10.0975
O 2.7151 -0.0068 10.0142
C 0.7436 -0.0049 8.8757
C -0.615 -0.0041 8.67
C -0.7806 -0.0027 7.2625
C 0.4952 -0.0027 6.7082
C 1.0907 -0.0017 5.403
C 0.5314 -0.0008 4.1641
S 1.5135 0.0 2.6945
C 0.0 -0.0 1.7443
S 0.0 0.0 0.0
N -1.1092 -0.0004 2.3919
C -0.9328 -0.0006 3.7817
O -1.8428 -0.0006 4.5807
O 1.4227 -0.004 7.7234
H -1.3751 -0.0045 9.4456
H -1.6994 -0.0018 6.6872
H 2.1838 -0.0019 5.4581
Au 2.2484 0.0053 -0.5186
21
Energy=0.5780543140594021
F -1.9377 1.657 6.0782
C -2.7526 1.0863 5.1526
O -2.2158 -0.114 4.7324
C -1.0672 -0.043 3.9688
C 0.1777 -0.0532 4.6015
C 1.3383 -0.0339 3.8318
C 1.2408 0.0 2.444
C 0.0 0.0 1.7821
C -1.1706 -0.0278 2.5725
C -2.5506 0.0665 1.9614
O -3.2412 1.0648 2.1184
N -2.9545 -1.0193 1.2643
S 0.0 0.0 0.0
F 2.3662 0.0343 1.728
F -3.9124 0.7967 5.7472
H -2.9037 1.7891 4.3185
H 0.2158 -0.076 5.6906
H 2.3291 -0.0347 4.2893
H -2.2838 -1.7264 0.9899
H -3.8217 -0.9496 0.7425
Au -1.289 1.8643 -0.4516
22
Energy=0.13741828513467005
C 3.0358 -1.2918 1.21
C 2.561 0.074 1.7259
C 1.2447 0.0 2.4589
C 1.247 -0.1047 3.8549
C 0.064 -0.1863 4.5752
C -1.1848 -0.1735 3.9311
C -1.2061 -0.0772 2.5233
C -0.0 0.0 1.7786
S 0.0 0.0 0.0
Cl -2.712 0.013 1.6681
C -2.4207 -0.2906 4.766
O -3.5388 -0.5249 4.3816
O -2.1501 -0.1156 6.0831
H 3.1436 -2.0129 2.0356
H 4.0104 -1.1994 0.7057
H 2.3181 -1.7074 0.4866
H 3.3175 0.4875 2.412
H 2.4654 0.7678 0.8775
H 2.2023 -0.1123 4.3848
H 0.0868 -0.2613 5.6612
Au -0.8737 2.0765 -0.5086
H -2.9969 -0.2374 6.5436
24
Energy=0.5878045992759875
C -3.0488 1.2516 4.9502
C -2.5587 -0.1639 4.6137
C -1.2286 -0.1524 3.8921
C -1.206 -0.0809 2.4948
C 0.0 0.0 1.7846
S 0.0 0.0 0.0
C 1.2155 -0.0 2.4833
C 1.1945 -0.0856 3.8732
C -0.0051 -0.1632 4.5957
C -0.0049 -0.2467 6.1099
O -0.3946 0.683 6.7804
C 0.419 -1.5658 6.7121
Cl 2.7266 -0.0539 4.7301
H -4.029 1.2171 5.4513
H -3.1533 1.8565 4.0354
H -2.3319 1.7522 5.6161
H -3.2996 -0.6737 3.977
H -2.4874 -0.7533 5.5414
H -2.1459 -0.0815 1.9392
Au -0.1307 2.2448 -0.4961
H 2.1625 0.0711 1.949
H 1.3791 -1.9005 6.2948
H 0.4815 -1.4742 7.8046
H -0.3353 -2.327 6.4476
21
Energy=-1.2134847513564269
C 1.6921 0.0462 6.3215
O 1.8762 0.0234 4.9213
C 0.8029 0.0109 4.1009
C -0.5089 0.0203 4.5839
C -1.5568 0.0046 3.6565
O -2.8785 0.0251 4.0508
C -3.2377 -0.6558 5.178
F -4.5598 -0.8412 5.1272
F -2.9728 0.0791 6.2941
C -1.3177 -0.0064 2.2931
C 0.0 0.0 1.7752
C 1.0609 0.0 2.7088
I 3.1574 -0.008 2.2498
S 0.0 0.0 0.0
H 2.6969 0.0468 6.7625
H 1.1534 0.9533 6.645
H 1.1424 -0.8442 6.6723
H -0.7156 0.081 5.6482
H -2.7156 -1.6252 5.2749
H -2.1681 -0.0215 1.6111
Au 2.2621 -0.0595 -0.5349
44
Energy=0.28445937832077045
C -1.6179 -0.0091 5.0157
C -0.7196 -0.0277 3.829
N 0.5881 -0.0124 3.852
N 1.0451 0.0 2.5593
C -0.0 0.0 1.7596
S 0.0 0.0 0.0
N -1.1583 -0.0238 2.5094
C -2.4991 -0.0074 2.031
C -3.3909 -1.0208 2.3956
C -4.6995 -0.9667 1.9133
C -5.1262 0.0563 1.0654
C -4.219 1.0642 0.6887
N -4.536 2.1257 -0.1667
C -5.7417 2.409 -0.7607
O -6.7482 1.7369 -0.5976
C -5.7776 3.6241 -1.6511
C -7.042 3.9151 -2.2459
N -7.3013 4.9127 -3.0549
C -6.2874 5.7583 -3.3683
N -6.5847 6.7804 -4.208
C -5.6517 7.6424 -4.5554
C -6.0324 8.758 -5.4905
C -4.3097 7.5481 -4.0754
C -3.9752 6.5246 -3.2237
C -4.966 5.5842 -2.8399
C -4.7285 4.4835 -1.9638
O -3.4949 4.2767 -1.4398
C -2.9068 1.0298 1.1923
H -2.1422 -0.9676 5.1565
H -2.3843 0.7769 4.9284
H -1.0023 0.1828 5.9038
Au 2.3082 -0.1422 -0.1987
H -3.0556 -1.8417 3.0298
H -5.4069 -1.7509 2.192
H -6.1432 0.0894 0.6855
H -3.7724 2.7576 -0.3836
H -7.8606 3.2332 -1.9953
H -5.8493 9.7403 -5.0243
H -7.0947 8.6743 -5.7504
H -5.4295 8.7193 -6.4129
H -3.5667 8.2852 -4.3861
H -2.9455 6.4584 -2.8562
H -2.8619 4.9293 -1.7661
H -2.1938 1.8115 0.924
21
Energy=1.1295910080473157
F 1.2496 -1.1832 6.5611
C 0.3077 -0.3187 6.1114
C 0.2872 -0.2486 4.6
C -0.9663 -0.2718 3.9931
C -1.1412 -0.1466 2.6077
C -2.5219 -0.1292 2.0458
O -2.9128 0.4969 1.116
Cl -3.6742 -1.2119 2.936
C -0.0 -0.0 1.7819
C 1.2641 0.0 2.3998
C 1.4266 -0.1144 3.7785
C 2.8477 -0.1417 4.3211
F 3.7239 0.2943 3.3983
F 2.9894 0.6371 5.3989
F 3.2146 -1.387 4.653
S 0.0 0.0 0.0
F 0.5704 0.9019 6.6464
H -0.6721 -0.6524 6.4944
H -1.8531 -0.3935 4.6158
H 2.1423 0.1034 1.7645
Au -0.8548 2.0818 -0.5137
20
Energy=-1.4742660444826003
C 6.1557 -0.0815 2.2792
C 4.7627 -0.2503 1.7354
C 4.4697 -1.088 0.7342
C 3.7227 0.6075 2.4252
N 2.392 0.5376 1.8752
C 1.3483 0.0 2.5597
O 1.419 -0.4202 3.702
C -0.0 -0.0 1.8333
S 0.0 0.0 0.0
H 6.4956 0.9644 2.1796
H 6.1871 -0.3195 3.3569
H 6.8775 -0.7291 1.7619
H 5.2442 -1.6969 0.2607
H 3.4472 -1.1957 0.3618
H 3.6403 0.3043 3.4819
H 4.0773 1.6561 2.4296
H 2.2304 0.7953 0.9057
H -0.5922 -0.8282 2.2414
H -0.5248 0.9353 2.0979
Au 0.9489 -2.0376 -0.4841
45
Energy=-0.25066716684521106
C -6.5604 -4.44 8.869
C -5.7517 -3.5489 7.9631
C -5.5606 -2.1966 8.2683
C -4.8187 -1.3392 7.454
C -4.2412 -1.8507 6.2851
N -3.4728 -1.0725 5.3996
C -3.0546 0.2194 5.5303
O -3.3372 0.9841 6.4324
C -2.2219 0.6991 4.3335
C -3.1444 1.1046 3.1672
C -2.3506 0.7711 1.9186
O -2.5504 1.1178 0.7851
N -1.262 -0.0122 2.3449
N -1.4215 -0.3686 3.72
C -0.1997 -0.9398 4.3458
C -0.0667 -2.3972 3.8757
C -0.2643 -0.8755 5.8688
C 1.0187 -0.1204 3.8428
O 1.8549 0.3338 4.5928
N 1.0856 -0.0 2.4676
C 0.0 0.0 1.7607
S 0.0 0.0 0.0
C -4.4228 -3.2061 5.9655
C -5.1665 -4.0604 6.782
C -5.3409 -5.5092 6.4071
H -5.9631 -5.2871 9.247
H -6.9415 -3.8843 9.7376
H -7.426 -4.8779 8.3434
H -6.0089 -1.7926 9.1801
H -4.6793 -0.2923 7.7116
H -3.0718 -1.5543 4.5983
H -1.6217 1.5596 4.6784
H -4.0751 0.5143 3.1631
H -3.4183 2.1669 3.1658
H -0.9049 -2.9927 4.2696
H -0.07 -2.4786 2.7797
H 0.8744 -2.8292 4.2468
H -1.0487 -1.5287 6.2705
H -0.4184 0.1466 6.2375
H 0.7075 -1.2061 6.2562
Au 2.3053 -0.0592 -0.2686
H -3.9711 -3.6033 5.0509
H -6.4059 -5.7686 6.2855
H -4.9439 -6.1784 7.1888
H -4.8261 -5.7477 5.4654
26
Energy=-0.27023318312649297
S 0.0 0.0 0.0
C -0.0 0.0 1.8314
C 1.4013 -0.0 2.4485
N 1.3655 -0.1477 3.8904
C 1.1796 -1.3787 4.4549
O 1.0633 -2.3873 3.7692
C 1.1398 -1.4307 5.9556
C 1.3609 -2.6966 6.5519
C 1.3429 -2.8743 7.9299
C 1.0804 -1.7433 8.712
C 0.837 -0.4663 8.1385
C 0.8646 -0.3117 6.7473
N 0.589 0.466 9.134
C 0.6792 -0.1999 10.2533
N 0.9733 -1.5357 10.0724
Au 0.9275 -2.0553 -0.4394
H -0.5725 -0.8566 2.2106
H -0.5461 0.9196 2.1043
H 1.9675 -0.845 2.0264
H 1.9352 0.926 2.1906
H 1.5581 0.6497 4.4803
H 1.5432 -3.5381 5.8822
H 1.5204 -3.8558 8.3743
H 0.6417 0.6685 6.3222
H 0.5437 0.2191 11.2516
H 1.0822 -2.2308 10.7997
21
Energy=0.21664786485098322
Br -2.9942 0.285 4.6851
C -1.3033 0.1805 3.8135
C -1.2458 0.0954 2.4247
C 0.0 0.0 1.7847
S 0.0 0.0 0.0
C 1.2105 0.0 2.526
C 1.1178 0.1362 3.9287
C -0.1336 0.1919 4.5656
C 2.2958 0.2503 4.8709
O 2.228 -0.2332 5.9818
C 3.5095 1.0752 4.4726
C 2.5177 -0.2218 1.8132
H -2.1563 0.0936 1.8258
Au 0.1926 -2.2384 -0.5212
H -0.1631 0.2533 5.6535
H 3.7996 1.6756 5.3469
H 4.3573 0.4091 4.2459
H 3.3329 1.7287 3.6088
H 2.4187 -1.0605 1.1071
H 2.8039 0.6523 1.2067
H 3.3358 -0.4577 2.5003
35
Energy=1.3381492220180824
O -3.5161 0.6252 2.5591
C -2.6247 0.0418 1.9651
C -1.2167 0.0597 2.5136
C -1.1224 0.1917 3.9054
C 0.1189 0.1992 4.5336
C 1.2507 0.0827 3.7257
N 1.1896 -0.0 2.3979
C 0.0 -0.0 1.7841
S 0.0 0.0 0.0
N -2.8148 -0.7134 0.8344
C -3.9957 -0.9172 0.0998
C -5.1883 -0.2393 0.4051
C -6.3321 -0.4605 -0.3584
C -6.3052 -1.344 -1.434
C -5.1156 -2.0173 -1.7256
C -3.9401 -1.8446 -0.9739
C -2.6539 -2.5858 -1.2497
S -5.1999 -3.1186 -3.1621
O -4.5362 -4.3968 -2.8598
O -6.5874 -3.1155 -3.6448
C -4.2135 -2.2653 -4.4088
H -2.0519 0.2856 4.4697
H 0.2101 0.2875 5.6172
H 2.2543 0.0619 4.1642
Au 2.2678 -0.3093 -0.3574
H -1.9884 -1.1753 0.4677
H -5.1973 0.448 1.2463
H -7.2544 0.069 -0.1098
H -7.1835 -1.5298 -2.052
H -1.8634 -1.9042 -1.6057
H -2.2772 -3.0608 -0.3285
H -2.7948 -3.3897 -1.9774
H -4.2536 -2.9122 -5.296
H -3.1807 -2.1542 -4.0562
H -4.6788 -1.2929 -4.6124
18
Energy=0.6648072476404647
C -0.4127 -1.0515 7.0345
C 0.537 -0.3542 6.0853
O 1.6065 0.0562 6.4888
C 0.2319 -0.2216 4.6044
C 1.365 -0.1109 3.78
C 1.2581 -0.0 2.4045
C 0.0 -0.0 1.7736
C -1.1542 -0.0864 2.5861
C -1.0354 -0.1831 3.9885
Cl -2.4945 -0.2048 4.9462
Br -2.8758 -0.0439 1.7934
S 0.0 0.0 0.0
H 0.1766 -1.3962 7.8946
H -0.9443 -1.889 6.5627
H -1.1748 -0.3424 7.3914
H 2.3398 -0.1042 4.2688
H 2.1501 0.0919 1.7834
Au -1.1532 1.9365 -0.5166
39
Energy=1.197472443717416
S 0.0 0.0 0.0
C -0.0 -0.0 1.775
N 1.1051 0.0 2.4445
C 1.104 0.0003 3.8433
O 2.1487 0.0001 4.4737
C -0.2209 0.0011 4.497
C -0.2682 0.0022 5.8809
N -1.379 0.0033 6.6156
N -1.3965 0.0046 8.0107
C -0.8405 -1.2102 8.6064
C -1.0653 -1.1604 10.1147
O -0.5028 0.0054 10.6769
C -1.0616 1.172 10.1127
C -0.8365 1.2185 8.6043
C -1.4478 0.0008 3.7319
O -2.5832 0.0014 4.2046
N -1.2738 0.0 2.3302
C -2.4503 0.0005 1.5016
C -3.0193 1.215 1.1101
C -4.1571 1.2129 0.3025
C -4.7239 0.0016 -0.1052
C -4.1545 -1.2102 0.2972
C -3.0168 -1.2135 1.1049
Au 2.3084 0.0004 -0.2512
H 0.6927 0.0024 6.4056
H -2.2719 0.0029 6.1108
H 0.2469 -1.3099 8.4039
H -1.3526 -2.0826 8.1725
H -0.5837 -2.0216 10.6004
H -2.154 -1.2018 10.3206
H -2.1502 1.2172 10.3184
H -0.5773 2.0325 10.5969
H -1.3456 2.0919 8.1688
H 0.2513 1.3142 8.4021
H -2.561 2.1499 1.4368
H -4.6027 2.16 -0.0094
H -5.6142 0.0021 -0.7383
H -4.5981 -2.1569 -0.0188
H -2.5565 -2.1488 1.4275
42
Energy=3.316387789427402
S 0.0 0.0 0.0
C 0.0 -0.0 1.7541
N 1.0407 0.0 2.5295
C 0.5825 -0.0549 3.8534
C 1.4712 -0.0566 4.8909
C 1.3413 -0.1079 6.3344
C 0.1244 -0.1783 7.051
C 0.1234 -0.2214 8.4402
C 1.3177 -0.1991 9.1864
C 2.5303 -0.1306 8.4739
C 2.54 -0.0856 7.0865
C 1.3003 -0.2458 10.6668
C 0.2684 0.3717 11.3983
C 0.2525 0.3293 12.7927
C 1.2671 -0.3335 13.4892
C 2.2982 -0.9528 12.7771
C 2.3149 -0.9085 11.3828
C -0.913 -0.1031 3.8302
O -1.7506 -0.1732 4.7063
N -1.2125 -0.0469 2.4499
C -2.5279 -0.034 1.9127
C -3.4518 -1.0037 2.3211
C -4.7456 -0.9854 1.7995
C -5.119 -0.0133 0.8664
C -4.1952 0.9554 0.4663
C -2.9042 0.9577 0.9977
Au 2.3001 -0.0957 -0.2678
H 2.5065 -0.0063 4.5378
H -0.816 -0.2065 6.5031
H -0.8321 -0.3009 8.9624
H 3.4753 -0.0847 9.0186
H 3.495 -0.0217 6.5588
H -0.5166 0.9135 10.8672
H -0.554 0.8241 13.3394
H 1.2541 -0.3675 14.5811
H 3.0916 -1.4817 13.311
H 3.112 -1.4182 10.8378
H -3.1534 -1.7585 3.0481
H -5.4654 -1.7419 2.1203
H -6.1312 -0.0081 0.4557
H -4.4821 1.7247 -0.2541
H -2.1877 1.7278 0.7091
33
Energy=0.7770092697629974
O -4.8004 -1.3548 2.6158
C -5.1711 -0.7539 1.4829
C -6.4914 -0.9216 1.0323
C -6.9191 -0.3051 -0.138
C -6.0467 0.4931 -0.8975
C -4.7403 0.6639 -0.4643
C -4.277 0.0545 0.7219
C -2.907 0.2635 1.1358
N -2.4423 -0.2743 2.2157
N -1.1327 -0.0869 2.5558
C -0.0 -0.0 1.7549
S 0.0 0.0 0.0
N 1.0655 -0.0 2.5309
N 0.6612 -0.0874 3.8281
C -0.651 -0.1475 3.8629
C -1.4433 -0.2553 5.0919
C -2.8042 0.0867 5.1876
C -3.4831 -0.0258 6.4015
C -2.7944 -0.4712 7.5253
F -3.444 -0.5811 8.6912
C -1.4414 -0.8042 7.4662
C -0.7728 -0.6957 6.2516
H -3.8391 -1.1768 2.7662
H -7.1601 -1.5445 1.6286
H -7.9506 -0.4471 -0.4697
H -6.3921 0.9704 -1.816
H -4.0435 1.2777 -1.0414
H -2.2805 0.9079 0.5019
Au 2.2859 -0.376 -0.2072
H -3.3476 0.4453 4.3165
H -4.5399 0.232 6.4852
H -0.9336 -1.1475 8.369
H 0.2854 -0.9476 6.1763
17
Energy=-0.5661585770369337
N -1.5064 0.002 7.5832
C -0.5381 0.0012 6.948
C 0.6705 0.0002 6.1256
C 0.4089 -0.0004 4.6273
C 1.4976 -0.0004 3.7485
C 1.293 -0.0 2.3749
I 3.0501 0.0 1.1661
C 0.0 -0.0 1.7726
C -1.072 -0.0012 2.6998
C -0.8736 -0.0009 4.0873
I -3.1707 -0.0052 2.2126
S 0.0 0.0 0.0
H 1.273 0.8823 6.4029
H 1.272 -0.8824 6.4037
H 2.5168 -0.0004 4.1392
H -1.7331 -0.0012 4.758
Au -2.2447 0.028 -0.5989
38
Energy=2.0353107145657714
C 2.7332 0.0128 11.8418
O 3.3184 0.0146 10.5555
C 2.5268 0.0116 9.4671
C 1.1209 0.0069 9.5089
C 0.4072 0.0043 8.3172
C 1.042 0.0059 7.0505
C 0.152 0.0032 5.9125
C 0.2352 0.0021 4.5403
C -1.0994 0.0001 3.8339
O -2.1515 -0.0011 4.4475
N -1.1033 0.0001 2.4421
C 0.0 -0.0 1.7718
S 0.0 0.0 0.0
N 1.2661 0.0 2.3327
C 1.4652 0.0019 3.7388
O 2.6121 0.0027 4.1484
C 2.4389 -0.0015 1.5001
C 3.0074 -1.2157 1.1047
C 4.1405 -1.2227 0.2934
C 4.6901 -0.0048 -0.1032
F 5.7774 -0.0064 -0.8834
C 4.1414 1.2147 0.2896
C 3.0083 1.211 1.1009
C 2.4625 0.0105 7.0384
C 3.1819 0.0134 8.2195
H 2.1102 0.9092 12.0053
H 3.5626 0.0159 12.5605
H 2.1165 -0.8878 12.0057
H 0.5837 0.0054 10.4565
H -0.6847 0.0009 8.3573
H -0.9031 0.0017 6.2111
Au -2.308 0.0017 -0.2593
H 2.5533 -2.1522 1.4318
H 4.6045 -2.1537 -0.0355
H 4.606 2.1443 -0.0422
H 2.5548 2.1488 1.4251
H 2.976 0.0116 6.0806
H 4.2733 0.0171 8.2135
32
Energy=0.5666659812598948
C 2.2387 1.2857 5.2489
C 1.5745 -0.0802 5.0265
C 0.6878 -0.1097 3.8289
N -0.6288 -0.2171 3.816
N -1.0611 -0.1354 2.5221
C -0.0 0.0 1.7454
N 1.1336 0.0 2.5373
N 2.4533 0.1568 2.1171
C 3.0528 -0.9568 1.8472
C 2.6002 -2.3252 1.9051
C 1.3537 -2.858 2.25
N 1.3957 -4.2131 2.1376
C 2.6497 -4.6282 1.721
C 3.442 -3.461 1.5632
C 4.7761 -3.5898 1.1426
C 5.265 -4.8689 0.8978
Br 7.0723 -5.0783 0.3253
C 4.4707 -6.0233 1.0575
C 3.1477 -5.9109 1.4732
S 0.0 0.0 0.0
H 2.881 1.2638 6.1426
H 1.4786 2.0691 5.39
H 2.8605 1.5631 4.3843
H 0.944 -0.3533 5.8851
H 2.3485 -0.861 4.9281
H 4.0887 -0.8163 1.515
H 0.4344 -2.3717 2.5621
H 0.6111 -4.8245 2.3269
H 5.4203 -2.7204 1.0076
H 4.9007 -7.004 0.8524
H 2.5262 -6.7999 1.5985
Au 1.4166 1.7839 -0.4186
15
Energy=2.3684624455140124
S 0.0 0.0 0.0
C -0.0 0.0 1.7832
C 1.2142 0.0 2.4938
C 1.1969 -0.0729 3.877
F 2.335 -0.0526 4.5697
C -0.0083 -0.164 4.5883
C -1.2272 -0.1836 3.892
C -1.2037 -0.0838 2.4881
C -2.5828 -0.2688 4.5109
O -3.5815 0.1025 3.979
Cl -2.6602 -1.0736 6.1068
F 0.0662 -0.1985 5.9103
Au 0.0192 2.248 -0.5015
H 2.1713 0.0649 1.9749
H -2.1531 -0.0774 1.9533
29
Energy=-1.253916957797693
S 0.0 0.0 0.0
C 0.0 0.0 1.8249
C 1.3555 -0.0 2.5203
S 2.5146 -1.3134 1.9993
C 1.6378 -2.7001 2.6279
N 0.6081 -2.6859 3.4423
N 0.2518 -3.9927 3.6734
C 1.0636 -4.7676 2.9956
N 1.975 -3.9919 2.2983
C 3.0564 -4.3863 1.3985
C 2.7781 -5.7022 0.6758
C 2.9981 -6.9678 1.5177
C 2.4074 -6.9173 2.9357
C 1.0205 -6.2639 3.0039
Au 1.144 1.9162 -0.5339
H -0.5361 -0.9267 2.0891
H -0.5959 0.843 2.2062
H 1.905 0.9314 2.3138
H 1.208 -0.0998 3.6055
H 3.162 -3.5727 0.665
H 4.0058 -4.4405 1.9602
H 3.4292 -5.7461 -0.2116
H 1.7459 -5.6666 0.29
H 2.5613 -7.8195 0.9692
H 4.0791 -7.1759 1.5903
H 3.0878 -6.3718 3.6115
H 2.3498 -7.9429 3.3328
H 0.3898 -6.6325 2.1742
H 0.4964 -6.5403 3.9297
32
Energy=2.636613745983968
S 0.0 0.0 0.0
C 0.0 0.0 1.7541
N 1.1071 -0.0 2.428
C 0.7716 -0.1224 3.7769
C 1.6799 -0.1285 4.7796
C 1.4184 -0.2537 6.2223
C 1.9342 0.7394 7.0744
C 1.7211 0.6982 8.4497
C 1.005 -0.358 9.0109
C 0.5179 -1.3783 8.1903
Cl -0.3373 -2.7026 8.9272
C 0.724 -1.3398 6.8007
Cl 0.1867 -2.6725 5.8264
C -0.726 -0.143 3.91
O -1.451 -0.1731 4.8742
N -1.1525 -0.0806 2.5642
C -2.512 -0.1559 2.1678
C -3.0542 -1.3758 1.7531
C -4.3806 -1.4349 1.3194
C -5.1686 -0.2804 1.3045
C -4.6334 0.9377 1.7384
C -3.3048 1.003 2.175
Au -1.9674 1.1315 -0.4906
H 2.7201 0.03 4.4755
H 2.4927 1.5664 6.6307
H 2.1137 1.49 9.0908
H 0.825 -0.4145 10.085
H -2.4221 -2.2649 1.7565
H -4.7998 -2.3877 0.9891
H -6.2049 -0.3301 0.9634
H -5.2517 1.8381 1.7481
H -2.8748 1.9386 2.5366
33
Energy=-0.5324817116518241
S 0.0 0.0 0.0
C -0.0 -0.0 1.7654
N 1.1522 0.0 2.4031
C 1.1731 0.0066 3.7616
N 0.1118 0.0097 4.5357
C -1.1063 0.0047 3.9201
C -1.2389 -0.0002 2.4955
C -2.5281 -0.0036 1.9079
C -3.6547 -0.0033 2.7062
C -3.5285 0.0014 4.1167
C -2.2838 0.006 4.7129
C 2.5498 -0.032 4.3789
C 3.5164 1.0097 3.7462
C 4.4446 0.3979 2.6933
C 5.3411 -0.7056 3.2895
C 4.6457 -1.4601 4.4439
C 3.127 -1.4662 4.2665
Au 2.3269 0.0419 -0.2195
H -2.6191 -0.0062 0.8199
H -4.6473 -0.006 2.2506
H -4.4285 0.0019 4.7365
H -2.1602 0.0103 5.797
H 2.4136 0.2034 5.4441
H 4.1358 1.4485 4.5467
H 2.9401 1.8395 3.3101
H 3.8142 -0.0238 1.8861
H 5.062 1.1827 2.2272
H 6.2842 -0.2656 3.6541
H 5.6233 -1.4151 2.4937
H 4.8859 -0.9779 5.4074
H 5.0318 -2.4894 4.5136
H 2.637 -2.1145 5.0093
H 2.8768 -1.88 3.2746
38
Energy=0.28495446522506096
C -4.3082 1.8881 5.7668
N -4.3455 0.717 6.6232
C -3.2902 -0.1184 6.8855
O -3.3307 -0.98 7.7553
C -2.0555 0.0032 6.031
C -0.7976 -0.0375 6.6695
C 0.3633 -0.0249 5.9127
C 0.2917 -0.0051 4.5099
C -0.9646 0.0013 3.8547
C -2.134 0.0123 4.6413
N -1.0851 0.0013 2.4767
C 0.0 0.0 1.7704
N 1.2595 0.0 2.3239
C 1.5206 -0.0022 3.7047
O 2.6621 -0.0019 4.1198
S 0.0 0.0 0.0
C -5.6317 0.4259 7.2551
C -6.6755 0.0311 6.2474
S -8.0191 1.0815 5.8974
C -8.6225 0.0012 4.6913
C -7.8203 -1.1037 4.5656
C -6.6924 -1.0972 5.4515
C -5.6452 -2.176 5.4812
H -4.8469 1.7239 4.8183
H -4.7957 2.731 6.285
H -3.2751 2.1743 5.5443
H -0.7603 -0.0874 7.7585
H 1.3508 -0.04 6.3775
H -3.0944 0.0121 4.1249
H 2.0819 -0.0017 1.7263
Au -2.2907 -0.0253 -0.3234
H -5.4511 -0.3857 7.9717
H -5.9667 1.3082 7.826
H -9.5418 0.2316 4.1554
H -8.026 -1.9157 3.8654
H -5.1291 -2.2308 6.4497
H -4.8682 -1.9982 4.7172
H -6.0893 -3.1603 5.268
58
Energy=-0.7871619882064491
S 0.0 0.0 0.0
C 0.0 -0.0 1.7826
N 1.129 -0.0 2.4303
C 1.1177 -0.0648 3.7963
C 2.4341 0.0494 4.4545
C 3.5579 0.5277 3.7639
C 4.7738 0.6931 4.4265
C 4.8738 0.3797 5.7858
C 3.7582 -0.1056 6.474
C 2.5362 -0.281 5.8191
C 1.3317 -0.8736 6.4899
C -0.0095 -0.2298 6.0701
C -0.1423 1.2192 6.6158
C -0.2477 1.291 8.1425
C -1.3822 0.4077 8.6699
C -1.237 -1.0372 8.1821
C -1.1551 -1.0999 6.6527
C -0.0466 -0.159 4.5418
C -1.3034 0.0206 3.8383
O -2.4103 0.1901 4.3373
N -1.2111 0.0084 2.4104
C -2.4901 0.0729 1.6912
C -3.271 -1.2478 1.6981
C -2.5136 -2.4183 1.0299
C -2.8502 -2.5315 -0.4583
C -4.342 -2.8714 -0.665
C -5.2248 -2.3112 0.4705
C -4.6444 -1.0105 1.0287
Au 2.2962 -0.0396 -0.3034
H 3.4532 0.7822 2.7086
H 5.6436 1.0739 3.886
H 5.8225 0.5135 6.3113
H 3.837 -0.3587 7.5347
H 1.4557 -0.8372 7.5793
H 1.2827 -1.9455 6.221
H 0.7103 1.8202 6.2597
H -1.0509 1.6555 6.1708
H 0.7068 0.9806 8.603
H -0.4037 2.3389 8.4487
H -2.3463 0.8106 8.3102
H -1.4174 0.4428 9.7717
H -0.3457 -1.4951 8.6461
H -2.0959 -1.6396 8.5212
H -2.1061 -0.7494 6.2354
H -1.0207 -2.1416 6.3148
H -3.0938 0.8472 2.1828
H -2.2841 0.4015 0.663
H -3.4437 -1.5008 2.7547
H -2.7901 -3.36 1.5329
H -1.4286 -2.3095 1.1773
H -2.2111 -3.2856 -0.9439
H -2.6059 -1.5752 -0.9509
H -4.4754 -3.9644 -0.7251
H -4.6789 -2.4684 -1.6347
H -6.2549 -2.1547 0.1129
H -5.2955 -3.0457 1.2911
H -4.5348 -0.2881 0.1986
H -5.3336 -0.5442 1.7503
19
Energy=1.6074461688360682
C -2.3478 0.4406 5.9783
O -2.3126 0.2754 4.5757
C -1.1248 0.2019 3.9427
C 0.1141 0.2056 4.5962
C 1.2701 0.1098 3.8241
F 2.4507 0.1114 4.4534
C 1.2429 -0.0 2.4405
C -0.0 -0.0 1.7857
C -1.1841 0.112 2.5365
C -2.5262 0.1346 1.8798
O -3.098 -0.7817 1.3863
Cl -3.2524 1.7811 1.8766
S 0.0 0.0 0.0
H -1.8304 1.3648 6.2882
H -3.4072 0.5103 6.2543
H -1.8938 -0.4209 6.4981
H 0.2065 0.2761 5.678
H 2.1703 -0.0874 1.8757
Au -0.8926 -2.0728 -0.4823
36
Energy=-0.4424382803646887
S 0.0 0.0 0.0
C -0.0 -0.0 1.7625
N 1.1616 0.0 2.4114
N 1.2202 0.0185 3.7584
C 0.0952 0.051 4.4169
C -1.2155 0.0565 3.7622
N -1.2203 0.0053 2.3911
C -2.5105 0.0356 1.6913
C -2.9693 1.4709 1.3973
C -4.2957 1.4717 0.6792
C -5.4975 1.4307 1.4016
C -6.7259 1.3793 0.7388
C -6.7691 1.3645 -0.6584
C -5.5774 1.4007 -1.3878
C -4.3503 1.4518 -0.7221
N -2.2382 0.1044 4.5655
C -1.6647 0.127 5.8546
C -0.235 0.0954 5.8273
C 0.5125 0.1142 7.0069
C -0.1738 0.1634 8.2221
C -1.5801 0.1939 8.2504
C -2.3392 0.1767 7.076
Au 2.3284 -0.0582 -0.1876
H -2.4152 -0.5478 0.7655
H -3.2318 -0.461 2.3531
H -2.2031 1.9735 0.7873
H -3.0479 2.0083 2.3545
H -5.4658 1.442 2.4948
H -7.6537 1.3531 1.3155
H -7.7296 1.327 -1.1776
H -5.6033 1.3917 -2.4802
H -3.4191 1.4805 -1.2953
H 1.6037 0.091 6.971
H 0.3837 0.1784 9.1612
H -2.0918 0.2319 9.2155
H -3.4301 0.2006 7.0994
22
Energy=1.101839448474552
F -3.4461 -0.462 8.6601
C -2.8001 -0.3726 7.4994
C -3.4318 0.2033 6.4025
C -2.7609 0.2956 5.183
C -1.4508 -0.1968 5.0515
C -0.8185 -0.7627 6.175
C -1.4867 -0.8525 7.3918
Cl -0.7206 -1.5565 8.7813
C -0.6682 -0.1111 3.8147
N 0.6606 -0.0791 3.7976
N 1.0733 0.0 2.516
C -0.0 -0.0 1.7414
N -1.141 -0.0768 2.5277
C -2.5024 -0.1817 2.0399
S 0.0 0.0 0.0
H -4.447 0.5845 6.5251
H -3.2605 0.7846 4.3486
H 0.2051 -1.1249 6.0845
H -2.4679 -0.5603 1.0107
H -3.0729 -0.8753 2.6707
H -3.0014 0.8001 2.0304
Au -0.483 2.2095 -0.4975
45
Energy=1.3300736360724796
C 5.7624 -2.5316 -0.8501
O 4.624 -2.4439 -0.0245
C 4.1455 -1.2207 0.308
C 4.7107 -0.006 -0.1086
C 4.1333 1.2028 0.2974
C 3.0022 1.2219 1.1078
C 2.4431 0.003 1.51
C 3.0048 -1.2092 1.1255
N 1.2645 -0.0 2.3374
C 0.0 -0.0 1.7738
S 0.0 0.0 0.0
N -1.1059 0.0006 2.4411
C -1.1059 0.0016 3.8354
O -2.1592 0.0007 4.4493
C 0.2222 0.0047 4.5311
C 0.172 0.0067 5.9096
C 1.1206 0.0095 6.9677
C 2.5241 0.0115 6.9636
N 2.9983 0.0132 8.2357
C 4.3933 0.0151 8.6187
C 1.9325 0.0124 9.135
C 1.9426 0.0135 10.5326
C 0.7064 0.0122 11.1786
C -0.4966 0.0098 10.4454
C -0.4945 0.0087 9.0511
C 0.7351 0.0101 8.3772
C 1.4511 0.0056 3.744
O 2.595 0.0105 4.173
H 5.5891 -2.0678 -1.8378
H 5.9666 -3.6012 -0.9894
H 6.6443 -2.0556 -0.3845
H 5.5946 0.0108 -0.7451
H 4.5811 2.1434 -0.031
H 2.5437 2.1586 1.426
H 2.5668 -2.1552 1.4439
Au -2.3096 0.0017 -0.2459
H -0.8686 0.0054 6.2542
H 3.1793 0.0118 6.0982
H 5.0155 0.0147 7.7151
H 4.6312 0.9102 9.2156
H 4.633 -0.878 9.2176
H 2.8753 0.0153 11.0996
H 0.671 0.0129 12.2703
H -1.4482 0.0087 10.9817
H -1.4354 0.0068 8.4965
27
Energy=-0.44284950718134264
S 0.0 0.0 0.0
C -0.0 0.0 1.832
C 1.3373 -0.0 2.5835
O 1.3463 -0.2285 3.7807
N 2.4318 0.2828 1.8235
C 3.7766 0.3131 2.2091
C 4.2282 0.2061 3.5267
C 5.5957 0.245 3.8459
C 6.057 0.1286 5.2734
C 6.4996 0.3969 2.7886
C 6.0808 0.5025 1.4567
C 4.7204 0.4556 1.1637
O 4.1916 0.5326 -0.0897
C 5.054 0.7265 -1.1885
Cl 8.2224 0.4581 3.1135
Au 1.0279 -1.9945 -0.5074
H -0.5287 0.9326 2.0976
H -0.5968 -0.8264 2.2395
H 2.2626 0.4507 0.8329
H 3.4875 0.0844 4.3141
H 6.7256 -0.7373 5.4067
H 6.6317 1.0175 5.5801
H 5.2009 0.0155 5.9526
H 6.8283 0.6142 0.6741
H 5.6224 1.6685 -1.0946
H 4.4173 0.7757 -2.0812
H 5.7662 -0.1105 -1.2971
46
Energy=3.9697461265404295
F 5.7996 -0.2782 -0.8473
C 4.7069 -0.2121 -0.0783
C 4.0363 -1.3894 0.2472
C 2.8988 -1.3148 1.0493
C 2.4435 -0.0728 1.5011
C 3.1336 1.0977 1.1732
C 4.274 1.033 0.3756
N 1.2694 0.0 2.3284
C 0.0 -0.0 1.7698
S 0.0 0.0 0.0
N -1.1074 0.0026 2.4386
C -1.1088 0.027 3.8286
O -2.1492 -0.044 4.4555
C 0.2206 0.1689 4.5209
C 0.2031 0.2537 5.8793
C 1.2789 0.438 6.8496
C 1.324 -0.4634 7.9508
C 0.4069 -1.5522 8.0913
C 0.4816 -2.4133 9.1598
C 1.4935 -2.261 10.1493
C 2.4054 -1.2422 10.0419
C 2.3518 -0.3172 8.9526
C 3.282 0.7218 8.8321
C 3.229 1.6414 7.778
C 4.1698 2.7162 7.6918
C 4.0958 3.6401 6.6824
C 3.0582 3.5442 5.712
C 2.1459 2.5196 5.7564
C 2.2048 1.5134 6.7685
C 1.4666 0.0876 3.7321
O 2.5935 0.0746 4.1767
H 4.413 -2.3429 -0.1256
H 2.354 -2.2192 1.324
H 2.7711 2.0566 1.5463
H 4.833 1.9285 0.1005
Au -2.3068 0.0291 -0.2671
H -0.8058 0.1338 6.2926
H -0.3592 -1.7109 7.3314
H -0.2382 -3.2304 9.2474
H 1.5424 -2.9611 10.9863
H 3.194 -1.1184 10.7884
H 4.067 0.823 9.5863
H 4.9451 2.7877 8.4587
H 4.8174 4.4582 6.6266
H 2.9848 4.301 4.9273
H 1.3469 2.4803 5.0176
25
Energy=0.11507567152464167
C 3.9296 1.6521 2.6293
C 3.6511 0.2075 2.243
O 2.3538 0.0403 1.6813
C 1.2544 0.0 2.4551
C 1.3013 -0.0152 3.8537
C 0.1069 -0.0209 4.5668
F 0.1673 -0.035 5.9039
C -1.1288 -0.0017 3.9406
C -1.1903 -0.0027 2.5395
C -0.0 0.0 1.7738
S 0.0 0.0 0.0
C -2.6066 0.0056 1.99
O -3.4685 0.5807 2.6224
C -2.9609 -0.7653 0.7376
H 3.8167 2.3071 1.752
H 4.9592 1.7513 3.0074
H 3.2421 2.0063 3.4117
H 3.7921 -0.4789 3.0957
H 4.3367 -0.1177 1.4476
H 2.2382 -0.0193 4.4072
H -2.0486 0.0217 4.5239
Au 0.9377 2.0511 -0.5032
H -4.0225 -1.0419 0.8027
H -2.8126 -0.1234 -0.1432
H -2.3332 -1.6568 0.5984
45
Energy=-0.2978592610775294
C -0.9935 -1.5593 4.2875
C -1.0735 -0.0703 3.8913
C -2.3721 0.5241 4.4477
C 0.1199 0.7505 4.4032
C 1.4651 0.3545 3.7833
C 2.4569 1.513 3.9244
O 2.0696 -0.7292 4.4803
N 1.2616 0.0 2.3661
C 2.4296 -0.4702 1.6252
C 2.4766 -1.9993 1.4455
C 3.8335 -2.4614 1.0192
C 4.2316 -2.9295 -0.2123
N 5.5872 -3.2075 -0.1953
C 6.0978 -2.9203 1.0528
C 7.3983 -3.0336 1.5615
C 7.6067 -2.6588 2.8867
C 6.5476 -2.1834 3.6907
C 5.2549 -2.0719 3.1867
C 5.0164 -2.4427 1.8491
C 0.0 0.0 1.8032
S 0.0 0.0 0.0
N -1.1194 0.0247 2.433
H -1.9129 -2.0743 3.9721
H -0.1636 -2.075 3.7782
H -0.8856 -1.6845 5.3771
H -2.4663 1.5798 4.152