30
Energy=2.5819869408357645
O 2.6106 -0.0036 4.0956
C 1.3849 -0.0026 3.5624
N 1.2728 0.0 2.2592
C 0.0 -0.0 1.7653
S 0.0 0.0 0.0
N -1.1274 0.0017 2.4382
C -1.0743 0.0105 3.8094
O -2.1088 0.0232 4.5009
C 0.2604 -0.0008 4.4389
C 0.3999 -0.0522 5.823
N -0.6664 -0.026 6.616
N -0.5841 -0.2838 7.9597
C -0.0408 -1.4628 8.4465
O 0.5292 -2.2529 7.7208
C -0.1749 -1.6532 9.9261
C -1.1781 -1.0428 10.6954
C -1.2507 -1.2784 12.0695
C -0.3241 -2.1256 12.6835
C 0.6686 -2.7479 11.9191
C 0.7389 -2.5186 10.5459
H 3.2327 -0.0182 3.3479
Au -2.2814 -0.0093 -0.3593
H 1.3846 -0.1196 6.2898
H -1.5755 -0.0545 6.0834
H -0.9517 0.4281 8.5787
H -1.9331 -0.4082 10.2254
H -2.0394 -0.8074 12.6603
H -0.3813 -2.3082 13.7592
H 1.3878 -3.4171 12.3966
H 1.4962 -3.0026 9.9269
20
Energy=0.6081943695090153
N -2.3994 -0.5789 5.874
C -2.3426 0.3142 4.8401
O -3.1607 1.1975 4.6835
C -1.1236 0.15 3.957
C 0.1328 0.1515 4.5761
C 1.3027 0.0828 3.8247
C 1.265 -0.0 2.4306
C 0.0 -0.0 1.7773
C -1.1818 0.0728 2.5554
I -3.0883 -0.0601 1.6194
S 0.0 0.0 0.0
C 2.5514 -0.096 1.6545
H -1.8199 -1.4075 5.8865
H -3.2053 -0.5356 6.4877
H 0.1859 0.2265 5.6644
H 2.2705 0.0913 4.3315
Au -0.8977 -2.0804 -0.4845
H 2.6909 0.7732 0.9934
H 2.5496 -0.9812 0.9998
H 3.4116 -0.1556 2.3366
39
Energy=0.8216648194558787
Cl -5.6851 -5.6838 11.8335
C -5.3188 -4.2286 10.9339
C -4.8591 -4.3382 9.6164
C -4.5587 -3.1792 8.8934
C -4.7185 -1.9362 9.5021
C -5.1775 -1.8375 10.8228
C -5.4857 -2.984 11.553
C -5.2747 -0.3854 11.2372
C -4.3968 0.3342 10.191
C -4.4701 -0.5568 8.9246
N -3.3099 -0.4778 8.0651
C -3.3699 -0.0112 6.7808
O -4.4087 0.3662 6.2616
C -2.0641 -0.01 6.0265
C -0.8038 0.0058 6.6653
C 0.3586 0.0111 5.9087
C 0.2866 0.0014 4.5076
C -0.9708 0.0006 3.8517
C -2.1396 0.0032 4.6372
N -1.0862 -0.0002 2.4741
C -0.0 0.0 1.7692
N 1.2597 -0.0 2.325
C 1.5179 0.0017 3.7044
O 2.6578 0.0031 4.1248
S 0.0 0.0 0.0
H -4.7381 -5.3263 9.1704
H -4.1962 -3.2519 7.8649
H -5.8406 -2.9308 12.5836
H -6.3239 -0.046 11.167
H -4.9513 -0.2076 12.2743
H -3.3501 0.3534 10.5387
H -4.7011 1.3716 9.9928
H -5.3193 -0.2532 8.2905
H -2.4457 -0.8818 8.4044
H -0.7327 0.0481 7.7539
H 1.3456 0.031 6.3744
H -3.1151 0.0168 4.1516
H 2.0825 0.0014 1.7277
Au -2.2943 0.0203 -0.3099
27
Energy=-0.6597166216733146
C -2.5066 3.5852 0.8467
O -2.143 2.2329 0.9061
C -3.0692 1.4179 1.5699
C -2.5036 0.0101 1.6643
N -1.2348 -0.0249 2.4001
C 0.0 -0.0 1.7751
S 0.0 0.0 0.0
N 1.133 -0.0 2.4137
C 1.1399 -0.0192 3.7829
C -0.0704 -0.0365 4.5184
C -1.349 -0.0321 3.8091
O -2.4471 -0.0357 4.3406
C -0.0227 -0.0543 5.9197
C 1.2188 -0.0566 6.5366
C 2.3659 -0.0403 5.717
N 2.3423 -0.0223 4.3931
H -3.4539 3.7358 0.2902
H -1.7032 4.1245 0.3252
H -2.6323 4.0233 1.8575
H -3.2787 1.7973 2.5891
H -4.0379 1.3764 1.0281
H -3.2152 -0.6254 2.2065
H -2.3342 -0.4085 0.6637
Au 2.2921 -0.2625 -0.2568
H -0.9608 -0.0662 6.4785
H 1.3186 -0.071 7.6233
H 3.3593 -0.0426 6.1828
21
Energy=0.20459906160089153
N -0.8107 -2.0298 7.1794
C -0.4022 -1.0492 6.719
C 0.106 0.1877 6.1151
C 0.0714 0.1462 4.6038
C -1.1429 0.1408 3.8997
C -1.1983 0.0928 2.5114
C -0.0 -0.0 1.7828
C 1.2301 -0.0 2.4536
C 1.2396 0.0859 3.8424
F 2.4183 0.0881 4.48
S 0.0 0.0 0.0
O -2.275 0.2419 4.6953
C -3.3735 -0.5157 4.4391
F -4.0535 -0.0674 3.3691
F -4.1658 -0.4401 5.494
F -3.0586 -1.7905 4.2069
H -0.5068 1.0242 6.4874
H 1.1374 0.3502 6.4578
H -2.1534 0.1234 1.9916
H 2.1718 -0.0761 1.91
Au -1.0268 -1.9995 -0.4952
19
Energy=0.645259122353284
S 0.0 0.0 0.0
C -0.0 0.0 1.7828
C -1.2035 0.0874 2.4937
C -1.1873 0.1636 3.8863
Br -2.9024 0.2727 4.7345
C 0.0057 0.1624 4.6397
C 1.2148 0.0796 3.8935
C 1.2032 0.0 2.4942
C 2.5412 0.0737 4.5847
O 2.7266 0.1357 5.7784
O 3.5756 -0.0116 3.7195
C -0.004 0.2442 6.1406
Au -0.1563 -2.2411 -0.5078
H -2.1511 0.0931 1.9552
H 2.145 -0.0646 1.9532
H 4.381 -0.0062 4.2629
H -1.0271 0.297 6.5258
H 0.5067 -0.6234 6.5815
H 0.5605 1.1218 6.4862
21
Energy=2.101951799628637
C 3.1209 1.3194 1.5575
C 2.5546 -0.0756 1.8618
C 1.2045 0.0 2.531
C 0.0 0.0 1.7835
S 0.0 0.0 0.0
C -1.2424 0.1021 2.4338
C -1.3251 0.231 3.8163
C -0.1437 0.2635 4.5459
C 1.109 0.1532 3.9308
C 2.3392 0.2034 4.7783
O 3.1542 -0.6477 4.9135
Cl 2.5393 1.806 5.5881
F -0.2023 0.3773 5.8754
H 3.2318 1.9154 2.4768
H 2.4536 1.8661 0.8741
H 4.1099 1.2398 1.0808
H 3.2504 -0.6323 2.5035
H 2.4542 -0.6398 0.9253
Au 0.1607 -2.2383 -0.5319
H -2.1512 0.0811 1.8305
H -2.2804 0.3053 4.3375
23
Energy=3.538893025340851
O 2.9346 1.1065 9.7557
C 1.9755 0.6085 8.9422
C 0.8118 0.05 9.4728
C -0.1773 -0.44 8.613
C -0.0211 -0.389 7.2321
C 1.1578 0.1495 6.6659
C 1.4964 0.137 5.2482
C 0.7678 0.022 4.1059
S 1.5943 0.0 2.5288
C 0.0 -0.0 1.739
S 0.0 0.0 0.0
N -1.0385 -0.0049 2.5048
C -0.7253 -0.0226 3.8727
O -1.568 -0.0634 4.7428
C 2.1387 0.6623 7.5478
O 3.3223 1.2277 7.1299
H 3.6329 1.4672 9.1864
H 0.6942 0.0245 10.5577
H -1.0897 -0.8678 9.0338
H -0.7994 -0.7568 6.57
H 2.5764 0.222 5.077
Au -2.3019 -0.0316 -0.2961
H 3.18 1.7512 6.3307
32
Energy=4.232926031160522
C -2.7069 -0.5255 11.3742
O -2.9551 -1.1036 10.1095
C -2.054 -0.9449 9.1196
C -0.8434 -0.241 9.2603
C -0.002 -0.1417 8.1596
C -0.3321 -0.6772 6.8985
C 0.5526 -0.4057 5.7944
C 0.2974 -0.2419 4.4544
C 1.4157 -0.1142 3.5371
O 2.6518 -0.1444 4.0449
N 1.2885 -0.0 2.2488
C 0.0 -0.0 1.7655
S 0.0 0.0 0.0
N -1.1073 0.0023 2.4477
C -1.0539 -0.0211 3.8372
O -2.0547 0.1678 4.5082
C -1.5192 -1.4682 6.8079
O -1.7018 -2.1466 5.6711
C -2.9783 -2.6737 5.3655
C -2.377 -1.5652 7.9018
H -1.7924 -0.936 11.8367
H -3.5702 -0.7749 12.0044
H -2.6137 0.5723 11.3075
H -0.5614 0.2239 10.2031
H 0.9323 0.4175 8.2544
H 1.6 -0.2685 6.0837
H 3.2551 -0.059 3.2864
Au -2.2823 0.0449 -0.3503
H -3.7455 -1.8861 5.4204
H -3.2428 -3.5085 6.0377
H -2.9174 -3.0454 4.3351
H -3.2983 -2.1425 7.8587
32
Energy=0.33856800046005037
Cl -1.3119 -2.5794 5.5202
C -1.862 -0.9592 5.8017
C -2.7845 -0.6283 6.857
C -3.3558 -1.4561 7.8403
C -4.2366 -0.9043 8.7615
C -4.559 0.4675 8.7184
C -4.0061 1.304 7.7537
C -3.1192 0.7497 6.8212
S -2.2979 1.5857 5.5213
C -1.5041 0.0996 5.0131
C -0.6355 0.079 3.8378
N 0.6809 0.0678 3.812
N 1.0778 -0.0 2.5107
C 0.0 -0.0 1.7488
N -1.1305 0.0644 2.5498
C -2.4941 -0.0284 2.155
C -3.227 -1.1727 2.4929
C -4.559 -1.2775 2.0849
C -5.1475 -0.2528 1.338
C -4.4056 0.8844 1.0034
C -3.0771 1.0028 1.4139
S 0.0 0.0 0.0
H -3.0971 -2.5163 7.8649
H -4.6844 -1.5381 9.5299
H -5.253 0.8816 9.4532
H -4.2567 2.3662 7.7223
H -2.7512 -1.9646 3.0732
H -5.137 -2.1647 2.3527
H -6.1881 -0.3392 1.0175
H -4.8642 1.6864 0.421
H -2.4814 1.8784 1.1547
Au -1.4334 -1.7695 -0.4357
26
Energy=-0.4066803206820174
C 5.5323 -0.6385 2.6546
C 4.7971 0.3831 1.8057
O 3.4534 0.594 2.279
C 2.5212 -0.2878 1.879
O 2.7476 -1.2219 1.1499
C 1.1944 -0.0 2.5216
C 1.1839 0.1907 3.909
C -0.0403 0.3321 4.5478
F -0.0681 0.5037 5.8752
C -1.2495 0.2998 3.8602
C -1.2357 0.1337 2.468
C 0.0 -0.0 1.7729
S 0.0 0.0 0.0
O -2.3555 0.0838 1.7282
C -3.6124 0.233 2.3513
H 5.0587 -1.627 2.5676
H 6.5764 -0.7272 2.3146
H 5.5398 -0.3375 3.7138
H 4.7557 0.0654 0.7537
H 5.2698 1.3733 1.8661
H 2.1093 0.2206 4.4825
H -2.1724 0.4088 4.4265
Au -0.0394 -2.2556 -0.4762
H -4.3615 0.1688 1.5521
H -3.703 1.2116 2.8546
H -3.8003 -0.5682 3.0876
28
Energy=-0.43208373643850595
S 0.0 0.0 0.0
C 0.0 -0.0 1.7544
N -1.0397 0.0155 2.5641
N -0.5766 0.0326 3.8472
C 0.7356 0.0263 3.822
N 1.1648 0.0 2.4958
C 2.4816 0.1264 1.9829
C 3.0534 -0.8791 1.1967
C 4.3477 -0.727 0.697
C 5.0789 0.4282 0.9915
C 4.518 1.4389 1.7762
C 3.2224 1.2833 2.2564
F 2.6712 2.2408 3.0045
C 1.6009 0.0423 5.0019
C 2.8862 -0.5193 5.0352
C 3.6163 -0.4569 6.2212
C 3.0347 0.1514 7.3363
N 1.8057 0.6766 7.3235
C 1.1126 0.6245 6.19
Au -2.3096 0.0884 -0.2115
H 2.4673 -1.7745 0.9842
H 4.7869 -1.5138 0.0811
H 6.0941 0.5472 0.6075
H 5.063 2.3525 2.0192
H 3.3064 -1.0123 4.1581
H 4.6191 -0.8845 6.2842
H 3.5847 0.2128 8.2825
H 0.1083 1.0593 6.1885
28
Energy=4.1691255341376
C 4.8035 0.8175 8.7481
N 4.1973 0.4505 7.4885
C 2.8637 0.461 7.1955
C 2.6371 0.056 5.8814
C 1.3041 0.0363 5.3413
C 0.7949 -0.0109 4.0863
S 1.6108 -0.0 2.5194
C -0.0 -0.0 1.7414
S 0.0 0.0 0.0
N -1.0347 0.0018 2.5086
C -0.6993 0.003 3.8763
O -1.5106 0.0165 4.7756
C 3.9511 -0.2606 5.3371
C 4.4331 -0.7931 4.1281
C 5.8014 -0.9982 3.9691
C 6.7132 -0.696 4.9992
C 6.2692 -0.1949 6.2202
C 4.8932 0.0081 6.3726
H 4.0199 1.1237 9.453
H 5.3544 -0.0332 9.1814
H 5.5058 1.6564 8.6158
H 2.1325 0.7782 7.9376
H 0.5035 0.1071 6.0888
Au -2.3009 0.0254 -0.294
H 3.7513 -1.0613 3.3225
H 6.1743 -1.4082 3.0278
H 7.7807 -0.8674 4.8433
H 6.9693 0.0226 7.0289
25
Energy=2.169727786654086
O -2.6923 0.0099 3.9948
C -1.4375 -0.0356 3.5369
N -1.2877 0.0093 2.247
C 0.0 0.0 1.7616
S 0.0 0.0 0.0
N 1.1072 0.0 2.4438
C 1.0455 -0.0175 3.8294
O 2.0559 0.0133 4.5099
C -0.3325 -0.0938 4.4723
C -0.3243 -0.1566 5.8443
C -1.2706 -0.2995 6.928
C -2.6445 -0.6374 6.8338
C -3.432 -0.7691 7.9653
C -2.884 -0.5599 9.2436
O -3.7013 -0.6929 10.306
C -1.5236 -0.2338 9.368
C -0.7386 -0.1201 8.2303
H -3.2564 0.0799 3.203
Au 2.2857 -0.0169 -0.3418
H 0.7116 -0.0829 6.1994
H -3.0867 -0.8038 5.8571
H -4.4872 -1.0369 7.8897
H -3.211 -0.528 11.1231
H -1.0861 -0.0802 10.3587
H 0.3216 0.1199 8.337
34
Energy=2.21491764559703
C -2.4725 -0.0003 1.5468
N -1.252 0.0001 2.3523
C 0.0 0.0 1.7721
S 0.0 0.0 0.0
N 1.125 -0.0 2.4177
C 1.169 -0.0 3.8065
O 2.2487 -0.0006 4.3815
C -0.1247 0.0008 4.5256
C -0.2825 0.0016 5.8928
C 0.6198 0.0011 6.9826
C 1.997 -0.0012 7.1998
C 2.1948 -0.001 8.5948
C 0.9349 0.0016 9.1809
O -0.0058 0.0028 8.22
C 0.492 0.0031 10.566
C 1.4289 -0.0011 11.6183
C 1.0109 0.0003 12.9455
C -0.3559 0.006 13.2232
F -0.7612 0.0073 14.4978
C -1.3084 0.0103 12.2056
C -0.8814 0.0088 10.8805
C -1.3911 0.0009 3.7601
O -2.5011 0.0016 4.2625
H -3.3186 -0.0003 2.2421
H -2.5129 0.8952 0.9096
H -2.5126 -0.8962 0.91
Au 2.3151 0.0016 -0.2275
H -1.33 0.0026 6.212
H 2.73 -0.0028 6.4014
H 3.148 -0.0023 9.117
H 2.4974 -0.0058 11.3972
H 1.7252 -0.003 13.7703
H -2.3684 0.0147 12.4644
H -1.6131 0.0122 10.0721
26
Energy=-0.7894907177888859
C -3.8134 0.8373 -0.0026
O -2.5723 0.7557 0.6989
C -2.5829 0.0981 1.8648
O -3.5854 -0.3402 2.3762
C -1.2258 0.0276 2.4972
C -1.2352 -0.0096 3.8958
C -0.0498 -0.0423 4.6238
C 1.1681 -0.0346 3.9427
C 1.1815 -0.0 2.554
C -0.0 -0.0 1.7773
S 0.0 0.0 0.0
O 2.4192 -0.045 1.9212
C 3.1435 1.0989 1.8207
F 4.1447 0.8629 0.9819
F 2.4207 2.1224 1.3669
F 3.659 1.4648 3.0046
C -0.0725 -0.1375 6.1271
F -0.0507 -1.4187 6.5393
F 0.9952 0.4687 6.6751
F -1.1752 0.426 6.644
H -3.599 1.3729 -0.9346
H -4.2028 -0.1689 -0.2161
H -4.5578 1.3833 0.5953
H -2.2016 -0.0122 4.4003
H 2.1158 -0.046 4.4802
Au 1.7967 -1.3144 -0.6181
23
Energy=0.40398922056614034
S 0.0 0.0 0.0
C 0.0 -0.0 1.8617
C 1.4207 0.0 2.353
C 1.9436 1.0492 2.9982
C 2.2428 -1.2425 2.0761
N 1.5535 -2.4713 2.485
C 0.8728 -3.2121 1.5628
C 0.1615 -4.3228 1.9218
C 0.1416 -4.7043 3.2919
C 0.8268 -3.9691 4.221
C 1.5976 -2.7756 3.8707
O 2.2312 -2.0705 4.6363
Br 0.825 -4.4451 6.0507
Au -1.872 -1.2065 -0.5449
H -0.5433 0.8844 2.2182
H -0.5273 -0.8967 2.2136
H 1.3664 1.9638 3.1581
H 2.9591 1.0179 3.4009
H 3.1926 -1.1877 2.62
H 2.4429 -1.3259 0.9986
H 0.9193 -2.8449 0.5371
H -0.3705 -4.9001 1.1666
H -0.4195 -5.5859 3.6084
34
Energy=1.4098279356370305
O 3.2682 -1.963 2.8057
C 3.2954 -1.0828 1.9709
C 4.3653 -1.0912 0.8598
N 4.7725 -2.4486 0.5752
C 4.0307 -3.4298 -0.0455
O 2.9326 -3.3217 -0.595
C 4.8115 -4.6887 0.0475
C 5.9798 -4.4242 0.7696
C 5.9739 -2.9818 1.1355
O 6.7797 -2.3312 1.7445
C 6.9104 -5.4194 1.0327
C 6.6316 -6.7061 0.5458
C 5.4598 -6.9702 -0.1774
C 4.5249 -5.9572 -0.4392
N 2.4378 -0.0183 1.9059
C 1.1843 0.0 2.57
C 1.1191 -0.0129 3.9655
C -0.117 0.0132 4.6113
C -1.293 0.0588 3.8572
C -1.2328 0.0461 2.4633
C -0.0 0.0 1.7935
S 0.0 0.0 0.0
H 4.0178 -0.5946 -0.0574
H 5.2628 -0.5704 1.2266
H 7.8179 -5.203 1.5992
H 7.3376 -7.5178 0.7346
H 5.272 -7.9829 -0.5406
H 3.6077 -6.1505 -0.998
H 2.4206 0.4802 1.0182
H 2.0485 -0.0419 4.535
H -0.16 0.0031 5.7026
H -2.2651 0.0862 4.3554
H -2.1487 0.0469 1.8692
Au 1.4051 -1.7712 -0.4512
19
Energy=0.7317209676535238
Cl 3.2097 -1.4631 4.7651
C 2.2371 0.0411 4.9001
O 2.4724 0.8498 5.736
C 1.0669 0.0768 3.9661
C -0.1833 0.2393 4.5711
C -1.3351 0.2381 3.7879
C -1.2542 0.0918 2.4055
C 0.0 -0.0 1.7746
C 1.169 -0.0 2.567
Cl 2.7351 -0.0555 1.8213
S 0.0 0.0 0.0
O -2.5249 0.3441 4.4883
C -3.6451 0.8423 3.9114
F -4.1602 0.0043 2.9966
F -3.4206 2.0107 3.3016
F -4.5425 1.0169 4.8672
H -0.2656 0.3486 5.6525
H -2.1483 0.0466 1.787
Au 1.087 -1.9722 -0.5116
29
Energy=-0.4043704948327339
C -4.0506 -1.3221 0.6132
O -2.8379 -1.2448 1.3631
C -2.5321 -0.0501 1.8673
O -3.2499 0.922 1.7818
C -1.1893 -0.0565 2.5368
C -0.0 0.0 1.7821
S 0.0 0.0 0.0
C 1.2293 0.0 2.4573
C 1.2685 -0.0852 3.8488
C 0.098 -0.1235 4.6167
C -1.1342 -0.0904 3.9345
O -2.3054 -0.1596 4.6465
C -2.8951 1.0953 4.98
C 0.1393 -0.2708 6.1178
C -0.1872 -1.6989 6.5772
H -3.9934 -0.6689 -0.2707
H -4.9096 -1.013 1.2265
H -4.1522 -2.3697 0.3064
Au -1.0689 1.9865 -0.4919
H 2.1513 0.0634 1.8773
H 2.2357 -0.1072 4.3581
H -3.1802 1.6475 4.0712
H -3.7916 0.8744 5.5751
H -2.2053 1.7127 5.5821
H 1.1404 0.0182 6.4759
H -0.5746 0.4272 6.5829
H -0.1418 -1.779 7.675
H 0.5262 -2.422 6.1515
H -1.1983 -1.9837 6.2515
43
Energy=3.68270224936781
C 8.9119 3.1906 12.017
C 7.7558 3.4547 11.0856
C 7.2763 4.7607 10.8933
C 6.2072 4.9969 10.0305
C 5.5853 3.955 9.3377
C 6.0572 2.6475 9.5223
N 5.4961 1.5289 8.872
C 4.4775 1.4885 7.9571
O 3.8348 2.4424 7.5717
C 4.2124 0.0734 7.4076
N 2.8861 -0.0399 6.8837
C 2.6061 -0.0096 5.5315
O 3.4283 -0.0129 4.6337
C 1.1036 0.0044 5.3972
C 0.5582 0.0021 4.1501
S 1.5324 0.0 2.6768
C -0.0 0.0 1.7433
S 0.0 0.0 0.0
N -1.1102 -0.001 2.3912
C -0.9169 0.0 3.7773
O -1.8186 -0.003 4.5837
C 0.5792 0.0215 6.762
C -0.7054 0.055 7.318
C -0.8439 0.0864 8.7112
C 0.2777 0.0883 9.5457
C 1.5751 0.0527 9.0127
C 1.7041 0.0146 7.6317
C 7.1356 2.412 10.3931
H 9.1663 2.1215 12.0586
H 9.8124 3.7404 11.6975
H 8.6795 3.5231 13.0421
H 7.7461 5.5926 11.4245
H 5.8413 6.0167 9.8881
H 4.7509 4.1366 8.6657
H 5.9304 0.642 9.1004
H 4.3954 -0.6978 8.1757
H 4.9037 -0.1066 6.5685
Au 2.2581 0.0321 -0.4868
H -1.5715 0.0591 6.6613
H -1.8439 0.1153 9.1484
H 0.1481 0.122 10.63
H 2.4494 0.0671 9.6654
H 7.4984 1.3883 10.5316
31
Energy=0.3222326736027735
O -4.4349 -1.0543 1.6415
C -3.2273 -1.0145 1.495
N -2.4821 0.0264 2.0845
C -1.1575 -0.0509 2.5975
C -0.9997 -0.0803 3.9927
C 0.2604 -0.0854 4.585
C 1.402 -0.0552 3.7788
C 1.267 0.0 2.3948
C 0.0 0.0 1.7804
S 0.0 0.0 0.0
N -2.4834 -1.9098 0.7698
C -2.9559 -3.0242 0.07
C -4.2665 -3.5263 0.177
C -4.6367 -4.6592 -0.5417
C -3.7465 -5.3155 -1.3995
C -2.4447 -4.8003 -1.5062
C -2.0519 -3.6825 -0.7735
N -1.4199 -5.3889 -2.391
O -1.7903 -5.899 -3.431
O -0.2579 -5.2961 -2.0243
Cl -4.2908 -6.7496 -2.2113
H -3.1137 0.5587 2.6768
H -1.8972 -0.1126 4.6155
H 0.3494 -0.1172 5.6729
H 2.3978 -0.0575 4.227
H 2.1517 0.0569 1.758
Au -1.7073 1.486 -0.5069
H -1.5367 -1.616 0.5242
H -4.9816 -3.0194 0.8198
H -5.6469 -5.0586 -0.4417
H -1.0231 -3.3366 -0.8754
34
Energy=-1.2809986503847492
C 2.9133 -2.13 1.8674
C 3.4819 -0.8181 2.4042
C 2.5267 0.3954 2.2534
N 1.1248 0.0 2.6055
C -0.0 0.0 1.7768
S 0.0 0.0 0.0
N -1.1282 -0.1133 2.4378
C -0.7906 -0.2247 3.7649
C 0.6257 -0.2112 3.9223
C 1.1886 -0.4567 5.2053
C 2.631 -0.7426 5.5594
C 0.2689 -0.5736 6.2624
C -1.1237 -0.5143 6.1066
C -1.6727 -0.3627 4.8424
C 2.9252 1.5918 3.1389
C 2.6567 0.8983 0.8074
H 2.5567 -2.0348 0.8301
H 3.6784 -2.9214 1.8883
H 2.0599 -2.4696 2.4735
H 4.4117 -0.5625 1.8698
H 3.7727 -0.9499 3.4501
Au -2.2797 -0.3538 -0.2413
H 3.3464 0.0232 5.2374
H 2.96 -1.7011 5.1265
H 2.7252 -0.8357 6.65
H 0.6728 -0.7549 7.2613
H -1.7676 -0.6191 6.9828
H -2.7489 -0.3553 4.6628
H 2.3921 2.4944 2.8046
H 4.0061 1.7782 3.0482
H 2.6854 1.4476 4.1955
H 1.9459 1.7028 0.5793
H 2.5446 0.0999 0.0636
H 3.6711 1.3088 0.6968
17
Energy=-0.7568643906715704
Br -0.4181 -0.5314 6.4401
C -0.2333 -0.2336 4.5784
C -1.3766 -0.2502 3.7756
C -1.2577 -0.0988 2.4003
C 0.0 -0.0 1.7733
C 1.1543 -0.0 2.5908
C 1.0304 -0.0538 3.9917
O 2.1609 -0.0358 4.7876
C 2.6101 1.1542 5.2802
F 3.7731 0.9224 5.8656
F 1.7726 1.6843 6.1765
F 2.7758 2.0708 4.3196
I 3.0947 0.006 1.7441
S 0.0 0.0 0.0
H -2.3563 -0.3748 4.2378
H -2.1511 -0.0781 1.7744
Au 1.0424 2.0064 -0.5021
25
Energy=-0.05756800469412776
C -2.9592 -1.4279 1.5771
C -2.5218 -0.0274 1.9957
N -1.1542 0.0156 2.502
C -0.7183 0.0173 3.8145
N 0.592 0.0084 3.8468
N 1.0504 0.0 2.5567
C -0.0 0.0 1.7578
S 0.0 0.0 0.0
C -1.6147 -0.0247 5.0108
C -2.4065 -1.3087 5.0923
C -3.7742 -1.386 5.1981
S -4.3369 -3.0237 5.1975
C -2.7186 -3.625 5.0549
C -1.8022 -2.6072 5.01
H -2.3033 -1.8165 0.7835
H -3.9888 -1.3981 1.1888
H -2.9302 -2.1199 2.4303
H -2.5802 0.6705 1.1453
H -3.1778 0.3649 2.7846
Au 2.3102 0.1399 -0.1938
H -0.9506 0.0774 5.8823
H -2.2998 0.8385 5.022
H -4.4837 -0.5625 5.2698
H -2.5359 -4.6976 5.0132
H -0.7261 -2.7584 4.9108
35
Energy=1.7591187054045165
F -5.7855 -0.0051 -0.8807
C -4.6969 -0.0038 -0.1025
C -4.152 1.2155 0.2962
C -3.0174 1.2116 1.1054
C -2.4426 -0.001 1.4969
C -3.0076 -1.2151 1.0959
C -4.142 -1.2218 0.2864
N -1.2706 0.0004 2.3296
C -0.0 -0.0 1.7722
S 0.0 0.0 0.0
N 1.1051 -0.0 2.4413
C 1.1032 0.0009 3.8351
O 2.1496 -0.0006 4.4584
C -0.2257 0.0044 4.5242
C -0.2234 0.0085 5.8973
C -1.3349 0.0131 6.7908
C -1.1415 0.0177 8.1425
C -2.1818 0.023 9.1221
C -3.5651 0.0249 9.0589
C -4.0343 0.0308 10.4014
C -2.9129 0.0322 11.1943
O -1.798 0.0276 10.438
C -1.4655 0.0035 3.7353
O -2.6021 0.0053 4.1726
H -4.6207 2.1452 -0.0296
H -2.5668 2.1493 1.4338
H -2.5493 -2.1516 1.4167
H -4.6031 -2.1526 -0.047
Au 2.3082 0.0016 -0.2578
H 0.7794 0.0084 6.34
H -2.3387 0.013 6.365
H -0.1219 0.0177 8.5417
H -4.1611 0.0222 8.1494
H -5.0673 0.0337 10.7414
H -2.765 0.0362 12.2712
24
Energy=1.709364333353555
C 5.9917 -0.0065 5.2113
C 4.7061 -0.0011 5.9992
C 4.7332 0.0054 7.405
C 3.5476 0.0096 8.1406
C 2.3174 0.0076 7.4862
C 2.2535 0.0017 6.0782
C 0.9367 0.0008 5.4577
C 0.5567 -0.0001 4.1605
S 1.5284 0.0 2.6909
C 0.0 -0.0 1.7459
S 0.0 0.0 0.0
N -1.1053 -0.0002 2.3929
C -0.9176 -0.0003 3.7895
O -1.8096 -0.0005 4.6019
C 3.4662 -0.0028 5.3568
H 6.6058 0.8784 5.4461
H 5.8018 -0.0085 4.1283
H 6.6007 -0.8939 5.4501
H 5.6957 0.0069 7.9241
H 3.5832 0.0144 9.2325
H 1.3888 0.0109 8.0616
H 0.0842 0.0015 6.1461
Au 2.2507 0.0019 -0.5109
H 3.4513 -0.0083 4.2663
29
Energy=2.3629835660918532
S 0.0 0.0 0.0
C 0.0 -0.0 1.7492
N -1.1106 0.0004 2.3913
C -0.9434 -0.001 3.7893
O -1.8664 -0.0107 4.5697
C 0.5181 0.0043 4.1752
S 1.5054 -0.0 2.6998
C 1.1079 0.0051 5.4034
C 0.6088 0.0183 6.7418
C 1.3453 -0.0132 7.9195
C 0.4148 -0.0116 8.9887
C -0.8349 0.0339 8.4038
S -2.4192 0.1762 9.1331
C -3.3085 -1.1973 8.3837
C -3.4843 -1.2855 6.9967
C -4.2113 -2.3484 6.4597
C -4.7845 -3.2964 7.312
Cl -5.7078 -4.6178 6.6381
C -4.6295 -3.2041 8.6976
C -3.8798 -2.1545 9.2314
O -0.7167 0.0635 7.0555
Au 2.2492 -0.0064 -0.5121
H 2.2029 -0.0032 5.4061
H 2.4307 -0.0517 7.9859
H 0.6162 -0.0546 10.0557
H -3.0408 -0.5508 6.3255
H -4.3391 -2.4322 5.3796
H -5.0815 -3.9548 9.3473
H -3.7328 -2.0833 10.311
41
Energy=2.685883316341017
C -2.3513 -2.1824 5.9605
C -1.681 -1.3761 7.0097
N -2.1254 -1.4085 8.3006
C -1.2908 -0.6822 9.1394
C -1.3671 -0.4461 10.5134
C -0.3538 0.3225 11.0871
C 0.6959 0.8417 10.3046
C 0.7555 0.6098 8.9309
C -0.2453 -0.1696 8.3325
C -0.5107 -0.5924 6.9629
C 0.378 -0.3352 5.8825
C 0.1968 -0.2388 4.5196
C -1.1063 -0.0306 3.8406
O -2.1521 0.1453 4.4482
N -1.1036 -0.0027 2.4456
C 0.0 -0.0 1.7739
S 0.0 0.0 0.0
N 1.2649 -0.0 2.3342
C 1.4451 -0.1289 3.735
O 2.5717 -0.1543 4.191
C 2.4428 0.0852 1.5115
C 2.9098 1.3375 1.1042
C 4.0468 1.4193 0.2995
C 4.7163 0.2544 -0.0863
C 4.2498 -0.995 0.334
C 3.1116 -1.0824 1.1358
H -2.8972 -3.0317 6.3998
H -3.0377 -1.5488 5.3761
H -1.6109 -2.5669 5.2442
H -2.9275 -1.9454 8.6052
H -2.1854 -0.8459 11.1165
H -0.3777 0.5271 12.1598
H 1.4729 1.4415 10.7837
H 1.5655 1.0317 8.3319
H 1.421 -0.1811 6.1859
Au -2.3063 0.0148 -0.2619
H 2.374 2.2355 1.4165
H 4.4123 2.396 -0.0251
H 5.6071 0.3203 -0.7153
H 4.7747 -1.9053 0.0363
H 2.7321 -2.0482 1.473
42
Energy=0.5604404205700497
C 7.2376 4.1186 -1.7714
C 7.1657 3.6075 -0.3265
C 6.0902 2.5857 -0.0988
C 4.9457 2.6969 0.646
C 4.1341 1.5157 0.6243
C 4.6747 0.5201 -0.1617
S 6.1694 1.0116 -0.8643
C 2.8458 1.4437 1.3513
O 2.2284 2.409 1.7375
N 2.354 0.1306 1.5178
N 1.255 -0.0 2.3418
C -0.0 0.0 1.7692
S 0.0 0.0 0.0
N -1.087 -0.0208 2.4859
C -0.9248 -0.0334 3.8305
S -2.2749 -0.0568 4.9343
C -1.1906 -0.064 6.3175
C -1.6953 -0.088 7.7311
C -0.5679 0.2991 8.7003
C 0.7353 -0.4316 8.359
C 1.2468 -0.0514 6.9639
C 0.1321 -0.0556 5.9512
C 0.29 -0.0346 4.522
C 1.5108 -0.012 3.754
O 2.6657 -0.0253 4.1416
H 7.453 3.2978 -2.4738
H 8.0313 4.874 -1.881
H 6.2821 4.5741 -2.0742
H 6.973 4.4473 0.3599
H 8.1448 3.1893 -0.0345
H 4.6687 3.587 1.2109
H 4.251 -0.4547 -0.3964
H 3.0616 -0.5761 1.7085
Au -2.2883 -0.0353 -0.3283
H -2.0709 -1.0991 7.9769
H -2.5555 0.5922 7.8483
H -0.3982 1.3886 8.6416
H -0.878 0.0804 9.7344
H 1.5074 -0.2116 9.113
H 0.5568 -1.5212 8.3989
H 1.7048 0.9542 6.9844
H 2.0519 -0.724 6.6329
53
Energy=1.803950437802925
C -4.2748 0.0074 8.9796
C -2.9214 -0.0117 8.3539
C -2.5405 -0.0112 7.0405
C -1.096 -0.0013 6.9891
C -0.1646 0.0 5.9126
C -0.2289 0.0002 4.5354
C 1.0996 0.0001 3.8374
O 2.1538 0.0006 4.4511
N 1.1045 0.0 2.443
C 0.0 0.0 1.7743
S 0.0 0.0 0.0
N -1.2645 0.0004 2.3353
C -1.4601 0.0015 3.747
O -2.6048 0.0035 4.1619
C -2.4391 -0.0001 1.5077
C -3.0087 -1.2123 1.1098
C -4.1446 -1.2184 0.3025
C -4.7061 -0.0014 -0.0951
Cl -6.1276 -0.0022 -1.1081
C -4.1488 1.2162 0.3065
C -3.0128 1.2114 1.1137
C -0.6456 0.0062 8.3318
C 0.7319 0.0014 8.903
N -1.7512 0.0022 9.1343
C -1.7319 -0.0005 10.5599
C -2.0381 -1.2009 11.2547
C -2.0249 -1.2283 12.6309
C -1.6995 -0.0619 13.3769
N -1.6936 -0.1331 14.7356
C -1.3913 0.9506 15.4146
C -1.069 2.1987 14.8161
C -1.0682 2.2942 13.4435
C -1.388 1.1465 12.6706
C -1.4175 1.1505 11.2519
H -4.4708 -0.8924 9.5862
H -4.406 0.8774 9.6448
H -5.0389 0.0591 8.1925
H -3.1902 -0.01 6.1738
H 0.8829 0.0031 6.2315
Au 2.3093 -0.003 -0.249
H -2.5529 -2.1498 1.4317
H -4.5974 -2.1565 -0.0199
H -4.6048 2.1538 -0.0128
H -2.5603 2.1494 1.4388
H 0.8379 -0.7766 9.6759
H 0.981 0.9637 9.3806
H 1.4795 -0.1873 8.1232
H -2.2744 -2.0957 10.6761
H -2.2539 -2.1369 13.1898
H -1.3939 0.8645 16.5082
H -0.8283 3.0574 15.446
H -0.8266 3.2337 12.9394
H -1.1949 2.0695 10.7055
31
Energy=3.798824227117894
C 3.866 0.0055 13.8148
C 3.0615 0.0048 12.5463
C 3.6739 0.003 11.2839
C 2.9379 0.0023 10.1021
C 1.5321 0.0034 10.1419
C 0.896 0.0052 11.3962
C 1.6539 0.0059 12.5626
Cl 0.813 0.0081 14.0998
C 0.7443 0.0026 8.9194
C -0.6189 0.0023 8.6753
C -0.7874 0.0015 7.271
C 0.4858 0.0013 6.7156
C 1.073 0.0008 5.4152
C 0.5143 0.0003 4.1711
S 1.5053 -0.0 2.7023
C 0.0 -0.0 1.7499
S 0.0 0.0 0.0
N -1.1116 0.0001 2.392
C -0.9386 0.0002 3.7875
O -1.8586 0.0002 4.5787
O 1.4083 0.002 7.7414
H 4.9433 0.0051 13.5985
H 3.6319 -0.8763 14.433
H 3.6323 0.8882 14.4318
H 4.7657 0.0022 11.2341
H 3.4458 0.0008 9.1376
H -0.1911 0.0062 11.4728
H -1.4066 0.0026 9.4242
H -1.7055 0.001 6.6946
H 2.1667 0.0009 5.4642
Au 2.2492 -0.0011 -0.5114
42
Energy=0.533453773587755
O -3.2856 -0.8402 7.8714
C -3.2609 -0.0613 6.9293
N -4.2972 0.7955 6.6834
C -4.3768 1.8677 5.6827
C -5.5483 2.7255 6.1725
C -6.4548 1.6977 6.8566
C -5.4486 0.7905 7.5953
C -5.1206 1.3114 8.9877
C -4.0187 2.1374 9.2372
C -3.7852 2.6484 10.5167
C -4.6527 2.3392 11.5667
C -5.7531 1.5103 11.3284
C -5.9813 1.001 10.0491
C -2.0494 0.0032 6.0351
C -0.788 -0.0401 6.6698
C 0.3715 -0.029 5.9119
C 0.2974 -0.0068 4.5093
C -0.9603 0.0016 3.8576
C -2.129 0.0141 4.6463
N -1.0836 0.0017 2.4792
C 0.0 -0.0 1.7712
N 1.2607 0.0 2.3218
C 1.5246 -0.0032 3.702
O 2.6673 -0.0034 4.1144
S 0.0 0.0 0.0
H -3.4288 2.421 5.6109
H -4.5976 1.4603 4.6812
H -6.0393 3.269 5.3525
H -5.1981 3.4663 6.9078
H -7.0005 1.1072 6.102
H -7.1896 2.1428 7.5408
H -5.8244 -0.238 7.6992
H -3.3237 2.3694 8.4279
H -2.9161 3.2867 10.6943
H -4.4685 2.7352 12.5681
H -6.4323 1.2529 12.145
H -6.8382 0.3447 9.8712
H -0.7522 -0.0898 7.7589
H 1.3597 -0.0461 6.3753
H -3.0861 0.0085 4.1261
H 2.082 -0.0027 1.7225
Au -2.2882 -0.0418 -0.3299
41
Energy=1.1910506239882857
C 4.2932 -0.1865 8.9466
C 2.9261 -0.1452 8.3502
C 2.5456 -0.1135 7.0355
C 1.1035 -0.0825 6.9863
C 0.1708 -0.0479 5.9135
C 0.2336 -0.0259 4.5356
C -1.0946 -0.0019 3.8391
O -2.1486 0.0077 4.4531
N -1.1019 0.0074 2.4439
C -0.0 0.0 1.7728
S 0.0 0.0 0.0
N 1.2643 0.0 2.3357
C 1.4629 -0.031 3.7481
O 2.6093 -0.0555 4.1563
C 2.4329 -0.0884 1.5153
C 3.0644 1.0722 1.0688
C 4.2 0.9825 0.265
C 4.7097 -0.2667 -0.0871
C 4.087 -1.4342 0.3653
Cl 4.7449 -2.9777 -0.0879
C 2.9437 -1.3536 1.1747
Cl 2.1449 -2.778 1.7469
C 0.661 -0.0976 8.3335
C -0.7128 -0.0804 8.9107
N 1.762 -0.1347 9.1334
C 1.716 -0.1611 10.5812
H 4.4623 -1.092 9.5551
H 5.0361 -0.1886 8.1378
H 4.5023 0.6877 9.5877
H 3.1953 -0.1133 6.169
H -0.8764 -0.0374 6.2333
Au -2.3089 -0.0589 -0.2416
H 2.6469 2.0373 1.3574
H 4.6937 1.8889 -0.09
H 5.5964 -0.3562 -0.7159
H -0.905 -0.9745 9.5285
H -0.8709 0.8 9.5574
H -1.4731 -0.0529 8.1212
H 1.1793 -1.0519 10.9441
H 2.7353 -0.1856 10.9819
H 1.2091 0.7329 10.9774
19
Energy=-1.6266290128264782
S 0.0 0.0 0.0
C -0.0 0.0 1.832
C 1.3776 0.0 2.5079
C 2.2952 -1.0897 2.0211
C 3.4271 -0.8382 1.2399
F 3.7359 0.4346 0.9456
C 4.2636 -1.8384 0.7513
C 3.9433 -3.1565 1.0612
C 2.8334 -3.4854 1.8354
C 2.0401 -2.4382 2.292
F 0.9619 -2.734 3.0366
F 4.7267 -4.1383 0.6041
Au 1.1299 1.9256 -0.5323
H -0.5352 -0.9339 2.0719
H -0.608 0.8334 2.2123
H 1.8606 0.9741 2.3462
H 1.22 -0.1109 3.5944
H 5.1347 -1.5942 0.1445
H 2.5917 -4.5207 2.0729
22
Energy=-0.1029549235865644
C 5.2556 -2.5481 1.9532
O 4.5389 -1.314 2.0297
C 3.2092 -1.3894 1.9053
O 2.6187 -2.4368 1.7521
C 2.5721 -0.0144 1.9275
C 1.1983 -0.0 2.5393
C -0.0 -0.0 1.7862
S 0.0 0.0 0.0
C -1.2374 0.045 2.4501
C -1.3084 0.0828 3.8425
C -0.1329 0.0568 4.5832
C 1.1007 0.0096 3.93
F 2.2204 -0.0244 4.6666
F -0.1621 0.0714 5.9172
H 5.0992 -3.028 0.9754
H 4.9207 -3.2396 2.7402
H 6.3134 -2.2945 2.0895
H 2.494 0.313 0.8774
H 3.2485 0.6731 2.4517
Au 0.6975 -2.1777 -0.365
H -2.1523 0.0392 1.8565
H -2.2641 0.117 4.3684
36
Energy=-1.9333170492939276
S 0.0 0.0 0.0
C -0.0 -0.0 1.837
C 1.3624 -0.0 2.5373
C 1.1543 0.4277 4.0068
N 2.3807 0.5095 4.7641
C 3.2488 1.6179 4.3944
C 4.2921 1.8759 5.4769
C 3.6445 2.2345 6.8235
C 2.3728 1.3821 7.1366
C 2.3562 0.1685 6.1794
C 2.4109 0.8772 8.5841
C 1.1038 2.2238 6.9255
C 2.0917 -1.3376 2.4587
Au 0.4487 -2.1647 -0.6031
H -0.6422 -0.8119 2.2122
H -0.5284 0.9447 2.058
H 1.979 0.7685 2.0397
H 0.4937 -0.3096 4.493
H 0.6002 1.3957 4.0071
H 3.7505 1.4079 3.4325
H 2.6572 2.5493 4.2308
H 4.9679 2.6818 5.1505
H 4.9169 0.9738 5.5839
H 3.3721 3.3031 6.8258
H 4.39 2.1093 7.6252
H 3.2206 -0.4758 6.4291
H 1.4603 -0.4414 6.3722
H 3.2855 0.2289 8.7566
H 2.4718 1.7189 9.2929
H 1.5062 0.2965 8.8296
H 0.1955 1.6187 7.081
H 1.0568 2.6435 5.9102
H 1.0738 3.0669 7.6348
H 2.3673 -1.592 1.4246
H 3.0055 -1.3013 3.0689
H 1.4578 -2.1512 2.8534
23
Energy=0.32229410490888905
N -3.3028 -2.4036 1.3418
C -2.9933 -1.3135 1.5947
C -2.5421 0.0527 1.8755
C -1.1869 0.0709 2.5575
C -0.0 0.0 1.7905
S 0.0 0.0 0.0
C 1.2634 -0.0 2.4078
C 1.382 0.0476 3.8006
C 0.2183 0.0717 4.5805
C -1.0223 0.0918 3.9563
N -2.1798 0.14 4.8856
O -2.062 -0.4493 5.9435
O -3.163 0.7874 4.5566
O 2.551 0.053 4.4709
C 3.7614 0.0093 3.7418
H -3.2956 0.5627 2.4854
H -2.4534 0.569 0.9064
Au -0.9282 -2.0807 -0.4419
H 2.1406 -0.0544 1.7662
H 0.2892 0.0714 5.6665
H 3.8642 0.8822 3.0738
H 4.5703 0.0262 4.483
H 3.84 -0.9137 3.1414
30
Energy=3.9200366190527576
C 0.0126 1.2707 11.5043
C 0.7253 -0.0004 11.017
C 0.0046 -1.2667 11.5049
C 0.8948 -0.001 9.5089
C -0.2162 0.0007 8.6482
C -0.0745 0.0006 7.2647
C 1.2109 -0.0012 6.677
C 1.5048 -0.0009 5.2502
C 0.7574 -0.0002 4.1122
S 1.5871 0.0 2.5334
C -0.0 -0.0 1.7406
S 0.0 0.0 0.0
N -1.0416 -0.0 2.5037
C -0.7327 0.0001 3.8719
O -1.588 0.0003 4.7338
C 2.3269 -0.003 7.5452
C 2.171 -0.003 8.9272
H 0.5447 2.1769 11.1766
H -0.0478 1.2854 12.6044
H -1.0158 1.3257 11.1123
H 1.7383 -0.0035 11.4546
H -1.0242 -1.3154 11.1133
H 0.5309 -2.1764 11.1777
H -0.0558 -1.2803 12.6051
H -1.225 0.0022 9.0683
H -0.9492 0.0019 6.6181
H 2.5855 -0.0015 5.0646
Au -2.3022 -0.0021 -0.2931
H 3.3338 -0.0044 7.1192
H 3.0548 -0.0044 9.5707
59
Energy=1.9045245427070958
S 0.0 0.0 0.0
C -0.0 -0.0 1.7747
N -1.1318 0.0 2.4179
C -1.153 0.0005 3.8006
O -2.2349 0.0016 4.4084
C 0.13 -0.0004 4.4979
C 0.1921 -0.0018 5.8905
N -0.8904 -0.0013 6.6572
C -0.9701 -0.0085 8.0585
C 0.1538 -0.0479 8.8964
C 0.0037 -0.0591 10.2777
C -1.2736 -0.014 10.8804
C -2.409 0.022 10.0297
C -2.2422 0.0129 8.6478
C -3.7838 0.0302 10.6381
C -3.8119 -0.7641 11.9876
C -2.7378 -0.1256 12.8931
N -1.4279 -0.0409 12.2433
C -0.3499 -0.4299 13.1435
C -1.0111 -0.426 14.5247
C -2.4557 -0.8375 14.2218
C -5.1887 -0.5249 12.5934
O -5.4272 0.4464 13.2803
N -6.1811 -1.4256 12.229
C -7.5699 -1.1534 12.6076
C -5.9591 -2.6262 11.545
O -6.8801 -3.3429 11.223
N -4.633 -2.9858 11.3008
C -3.5272 -2.226 11.6781
O -2.4095 -2.694 11.6688
C -4.4204 -4.321 10.7373
C 1.3869 -0.0002 3.7733
O 2.4995 -0.0006 4.2791
N 1.2473 0.0 2.3543
C 2.4696 -0.0 1.5548
Au -2.3137 -0.0004 -0.2303
H 1.1794 -0.0028 6.3594
H -1.7608 0.0028 6.0863
H 1.1607 -0.0807 8.4783
H 0.8958 -0.1043 10.9009
H -3.126 0.0221 8.0038
H -4.5214 -0.3812 9.9333
H -4.1066 1.0562 10.882
H -3.117 0.8864 13.1095
H 0.4947 0.2763 13.0878
H 0.0303 -1.4343 12.8755
H -0.5069 -1.1002 15.2314
H -0.9866 0.5895 14.9517
H -3.1712 -0.5394 15.0003
H -2.5109 -1.9281 14.0916
H -7.9411 -1.9377 13.282
H -7.5905 -0.1821 13.1105
H -8.204 -1.1427 11.7113
H -3.3563 -4.4164 10.5016
H -4.7108 -5.0976 11.4599
H -5.0362 -4.4387 9.8372
H 2.5155 0.8959 0.9179
H 3.3104 -0.0007 2.2573
H 2.5147 -0.8954 0.9171
34
Energy=0.5820693125118211
C 4.4144 -1.2132 0.5983
C 3.0653 -1.3023 1.3062
C 2.5395 0.0729 1.7529
C 1.216 0.0 2.4689
C 1.176 -0.1065 3.9008
C 2.4499 -0.148 4.7094
N 0.0511 -0.1544 4.5828
C -1.1347 -0.1258 3.9356
C -2.3393 -0.1631 4.7261
O -2.161 -0.2095 6.0592
C -3.2917 -0.2503 6.8967
C -3.576 -0.1478 4.097
C -3.6518 -0.1069 2.6866
C -2.5181 -0.0719 1.902
C -1.2365 -0.0686 2.5114
C 0.0 0.0 1.7831
S 0.0 0.0 0.0
H 5.1842 -0.7764 1.2563
H 4.7699 -2.2061 0.2809
H 4.3477 -0.5776 -0.3
H 3.1398 -1.9706 2.1816
H 2.3179 -1.7591 0.636
H 3.2893 0.5499 2.4017