17
Energy=0.0932393017589173
Au 2.1341 0.8392 -0.3
S 0.0 0.0 0.0
C 0.0 0.0 1.7485
N -1.1185 0.0025 2.5165
N 1.0448 0.0 2.5699
N -0.7371 -0.0132 3.8159
N 0.5473 -0.0061 3.8219
C -2.5278 0.0301 2.1643
H -2.5897 0.2216 1.0852
H -2.9891 0.8714 2.7005
C -3.2303 -1.2709 2.5299
C -2.7757 -2.4297 1.671
H -4.3204 -1.1616 2.4027
H -3.0637 -1.5167 3.5898
O -2.0883 -2.3295 0.6848
O -3.2433 -3.6027 2.1259
H -2.9191 -4.2935 1.5219
38
Energy=0.32666155485403975
Au 1.1159 -1.9445 -0.4999
S 0.0 0.0 0.0
C 0.0 0.0 1.8302
H -0.5819 -0.8387 2.2301
C 1.3871 -0.0 2.4761
H -0.5585 0.9179 2.0811
H 1.8525 -0.9631 2.2024
C 2.3257 1.1154 2.0044
C 1.2585 -0.0585 3.9994
O 0.3977 -0.715 4.5549
N 2.2042 0.6391 4.7052
H 2.4902 1.0033 0.9241
C 3.672 1.0618 2.7908
C 1.7932 2.5219 2.3418
H 0.7033 2.6373 2.2952
C 3.1873 1.5994 4.1662
C 2.3244 2.8145 3.7591
H 2.0877 0.6262 5.7145
O 2.102 3.7872 4.4242
C 4.1766 1.9266 5.2382
C 4.228 -0.3339 2.838
C 2.3752 3.5779 1.4226
C 4.7369 1.9549 2.0626
H 5.0489 1.3371 1.205
S 4.1564 3.5169 1.223
H 4.1283 -0.883 1.8949
O 1.7415 4.4371 0.8763
C 4.9858 1.0458 5.8383
C 5.9744 2.2183 2.8812
H 6.4477 1.3037 3.2528
C 6.5365 3.397 3.1537
H 6.1051 4.3409 2.8127
H 4.165 2.9593 5.5947
H 5.6036 1.3639 6.6839
C 4.8322 -1.0056 3.8302
H 5.1486 -2.0347 3.6279
S 5.2908 -0.6462 5.4847
H 7.4526 3.4473 3.7473
31
Energy=3.833322836678035
Au 1.5209 1.6505 -0.542
S 0.0 0.0 0.0
C -0.0 0.0 1.774
C 1.198 0.0 2.5146
C -1.1962 -0.0524 2.5321
C -2.516 -0.1649 1.8563
C -1.1757 -0.0602 3.9358
C 0.0315 -0.0391 4.6345
H -2.1265 -0.0819 4.4613
F 2.3649 0.018 1.8685
O -2.7114 -0.6055 0.7579
O -3.5218 0.3247 2.6637
C 1.2412 -0.0164 3.906
O 0.1388 -0.015 5.9727
C 2.5699 0.0167 4.5898
O 3.384 0.8733 4.4956
C -1.0342 -0.0777 6.7642
S -5.0543 -0.4075 2.7916
H -1.602 -1.0025 6.5666
Cl 2.8743 -1.4604 5.5655
H -1.6869 0.7935 6.5858
H -0.6989 -0.0736 7.8084
C -6.0012 0.4376 1.5061
O -4.902 -1.8226 2.4947
C -5.8121 -0.1386 0.1139
H -4.7653 -0.0735 -0.2085
O -5.499 0.065 4.0911
H -6.4446 0.421 -0.5918
H -6.1096 -1.1962 0.0916
H -5.7106 1.4938 1.6032
H -7.0328 0.333 1.8777
19
Energy=2.253008792777525
Au 0.373 -2.2313 -0.4497
S 0.0 0.0 0.0
C -0.0 0.0 1.774
C -1.1676 0.0833 2.5624
C 1.2336 0.0 2.4273
C -2.5318 0.0353 1.9083
F -2.6882 -1.1263 1.2179
C -1.0705 0.1827 3.9557
F -2.6948 1.0663 1.0428
H -3.3467 0.0874 2.6427
F 2.3743 -0.1116 1.7872
N 0.1563 0.1793 4.5661
C -2.1785 0.3053 4.9575
N 1.3727 0.0638 3.7733
O 2.4292 0.0476 4.3927
H -3.1695 0.3368 4.4964
O 0.3429 0.2569 5.7783
H -2.0312 1.2167 5.5576
H -2.1343 -0.5361 5.6668
35
Energy=2.7519740670728927
Au 0.4626 2.2028 -0.5138
S 0.0 0.0 0.0
C 0.0 0.0 1.7791
C 1.1674 0.0 2.5756
C -1.2304 -0.1473 2.4353
H -2.1457 -0.1475 1.8426
C -1.3292 -0.3203 3.821
C 2.536 0.2375 2.0194
C 1.0817 -0.1435 3.964
C -0.1545 -0.2862 4.613
O -0.2766 -0.35 5.9417
H 1.9994 -0.1256 4.546
O 2.849 1.0707 1.2078
C -2.7084 -0.492 4.3528
O 3.438 -0.5694 2.626
O -3.6768 0.0614 3.9399
C 4.8181 -0.2525 2.4799
Cl -2.88 -1.7714 5.614
C 0.8907 -0.3262 6.7714
H 1.5541 -1.1647 6.4958
H 1.4501 0.6082 6.5974
C 0.4454 -0.4391 8.2169
C -0.2565 -1.7566 8.5403
H -0.2166 0.4133 8.4459
H 1.3455 -0.3151 8.8426
H 5.2198 -0.7061 1.5601
H 4.943 0.8378 2.4045
C 5.5265 -0.8246 3.7089
C 4.904 -0.3555 4.9497
H 5.477 -1.9254 3.6966
H -1.1592 -1.8787 7.9246
N 4.3505 0.0133 5.8979
H 6.5912 -0.542 3.6965
H 0.405 -2.6168 8.3435
H -0.5541 -1.7976 9.5994
24
Energy=1.798109050868122
Au 2.3061 0.0004 -0.2625
S 0.0 0.0 0.0
C 0.0 0.0 1.7649
N 1.0929 -0.0 2.4469
N -1.269 -0.0027 2.3373
C 1.0905 0.0045 3.8417
C -2.4315 -0.092 1.5432
O 2.1355 -0.1675 4.4439
C -0.2159 0.2437 4.5357
C -1.4566 0.1226 3.7462
O -2.5938 0.13 4.17
C -0.2794 0.5629 5.874
C -2.9615 -1.2597 1.1629
I -3.372 1.7341 0.9898
Cl -2.2567 -2.7732 1.6053
H -3.8565 -1.3288 0.5447
C 0.9539 0.7121 6.7165
H 1.3775 -0.2831 6.9337
H 0.7188 1.2117 7.6659
H 1.7589 1.2392 6.1885
C -1.5837 0.7752 6.5906
H -2.1846 -0.1474 6.5829
H -1.4142 1.0924 7.6276
H -2.2148 1.5136 6.0739
40
Energy=2.2109878242736793
Au 1.9868 1.3257 0.1198
S 0.0 0.0 0.0
C -0.0 -0.0 1.746
N 1.0928 0.0 2.4628
N -1.1263 0.2768 2.5424
C 0.778 0.5363 3.6951
C -0.6934 0.5631 3.8403
C -1.5122 0.8617 4.8934
C -2.4861 0.2511 2.1169
C -2.9514 1.2492 1.2561
H -2.5733 1.0059 4.6867
C -1.0572 0.9247 6.2749
O 0.029 0.5474 6.6831
C -3.3356 -0.7632 2.5714
C 1.7668 1.2855 4.2697
H -2.9464 -1.535 3.2372
S 3.3422 1.3465 3.2676
C -2.0527 1.4389 7.2911
C -3.4001 1.0385 7.3183
H -3.8021 0.3907 6.5338
C -4.6695 -0.7712 2.16
N 1.7936 2.1514 5.3091
C -5.1519 0.2125 1.2939
H -2.2805 2.0322 0.906
C 2.9374 2.7261 5.3992
C -1.6702 2.2306 8.3662
N -0.3188 2.8086 8.4786
O 3.9267 2.4124 4.5297
O 3.0933 2.2304 2.0604
O 0.2352 2.688 9.5557
C -4.2856 1.2142 0.8455
C -2.6067 2.5424 9.3528
Cl -4.877 2.446 -0.2357
H -6.1908 0.2093 0.9623
O 0.101 3.4109 7.5095
N -4.2642 1.3721 8.2761
N -3.8705 2.1267 9.289
H -2.3296 3.1557 10.214
H 3.1975 3.4793 6.1481
H -5.3414 -1.5581 2.5089
19
Energy=0.2735529685423197
Au 1.1355 -1.9293 -0.5163
S 0.0 0.0 0.0
C 0.0 0.0 1.8515
C 1.3677 0.0 2.475
C 2.0533 1.2153 2.6314
C 2.0413 -1.1851 2.841
C 1.428 -2.5307 2.6987
C 3.3518 -1.1357 3.3435
H 0.3509 -2.5521 2.4092
H -0.5186 0.9447 2.0817
H -0.639 -0.8132 2.2161
O 2.0257 -3.5698 2.8854
C 4.0099 0.0824 3.4984
C 3.3465 1.2681 3.138
H 3.832 -2.0824 3.6063
H 3.8681 2.2191 3.2611
O 5.2709 0.1868 3.9836
H 5.6101 -0.6942 4.1907
H 1.5582 2.144 2.3369
26
Energy=0.189841541330705
Au 0.931 -2.0536 -0.5045
S 0.0 0.0 0.0
C 0.0 -0.0 1.7775
C 1.1659 -0.0 2.578
Br 2.8722 -0.1435 1.7639
C -1.2618 0.0956 2.3909
C 1.0496 0.0886 3.9783
H -2.156 0.078 1.7736
C -1.3711 0.2105 3.7792
C -0.2102 0.2006 4.5635
N -2.6032 0.3241 4.4477
H -0.283 0.2773 5.6485
C 2.2581 0.0762 4.8991
F 2.9585 -1.0613 4.7862
F 3.0887 1.0975 4.6502
C -3.8494 0.35 3.9019
H -2.5586 0.3939 5.4587
F 1.8859 0.1797 6.1894
O -4.1414 0.2729 2.7293
C -4.9809 0.487 4.954
F -5.7956 -0.5776 4.866
C -5.8169 1.7738 4.7525
F -4.4752 0.5328 6.2196
F -4.9869 2.8247 4.7049
F -6.5148 1.719 3.6274
F -6.6552 1.9381 5.775
17
Energy=1.5689772285097765
Au 0.5021 2.2119 -0.4318
S 0.0 0.0 0.0
C -0.0 0.0 1.7773
C 1.1924 -0.0 2.5285
C 2.5065 0.0773 1.8011
C 1.1719 -0.0478 3.9267
C -0.0576 -0.1144 4.6085
C -1.245 -0.1677 3.8668
Cl 2.6917 -0.1135 4.7727
O 3.046 1.0732 1.4485
C -1.2117 -0.0924 2.4812
F -2.3614 -0.1011 1.8155
Cl 3.1987 -1.5396 1.4959
C -0.23 -0.171 6.0939
H -2.2064 -0.2486 4.3754
Cl 0.6444 1.1105 6.9856
O -0.9637 -0.9171 6.6571
27
Energy=5.349094305696012
Au 1.2301 -1.9125 -0.4376
S 0.0 0.0 0.0
C -0.0 -0.0 1.8241
C -0.8468 -1.1203 2.4405
H -0.4298 -2.0843 2.0954
H -1.8731 -1.0729 2.049
C 1.4436 0.0 2.4516
C -0.8587 -1.0923 3.9782
C 0.5755 -1.1106 4.5161
H 1.867 -0.988 2.1686
C 2.3423 1.104 1.9673
H -0.4401 0.9862 2.0598
H 1.0762 -2.0402 4.1872
H 2.8657 0.9735 1.0202
C 1.3207 0.0526 3.9461
N 1.3167 1.2626 4.5363
C 1.8148 2.4144 3.941
H -1.4192 -1.9534 4.3777
H -1.3497 -0.1764 4.3478
F 0.5661 -1.1091 5.9067
C 2.4323 2.2644 2.6603
H 3.0131 3.1075 2.2792
C 1.7293 3.5442 4.797
H 2.0989 4.5248 4.4971
C 1.1695 3.2797 6.0103
S 0.7165 1.5968 6.1569
H 1.0212 3.9436 6.8594
19
Energy=-0.09030405254573841
Au 0.501 -2.2074 -0.4423
S 0.0 0.0 0.0
C 0.0 -0.0 1.7811
C 1.2073 -0.0 2.5134
C -1.2208 0.0855 2.501
Br 2.8951 -0.1692 1.6578
C -2.5502 0.0343 1.776
C -1.2301 0.2014 3.9052
C -0.0038 0.208 4.5851
C -2.5068 0.3135 4.7088
C 1.2037 0.099 3.9047
H 2.1487 0.0961 4.4492
F -2.6913 -1.1281 1.0799
H -3.1469 -0.5764 4.5971
F -2.6914 1.0688 0.9053
H 0.0038 0.2962 5.6739
H -3.1052 1.1907 4.4157
H -3.3942 0.0875 2.4777
H -2.2752 0.4171 5.7778
46
Energy=5.597825194400239
Au 1.9127 -1.1502 -0.563
S 0.0 0.0 0.0
C -0.0 0.0 1.7771
C 1.1419 0.0 2.578
H 2.1216 -0.0227 2.1074
C 0.9934 0.0352 3.9904
C -1.2665 0.0905 2.3903
O -2.4086 0.1328 1.6404
C -1.3188 0.1657 3.8003
N -0.2143 0.1374 4.5562
N 2.083 -0.0312 4.8248
C 3.42 -0.0145 4.2758
C -2.5822 0.2418 4.5414
C -2.9856 -1.1573 1.3174
S -4.004 0.849 3.8897
C 1.9259 0.1584 6.2562
H 0.9039 -0.1076 6.5457
S -2.58 -0.1807 6.2767
H 3.6608 0.9357 3.7606
H 2.1076 1.2076 6.5597
H -2.3585 -1.6388 0.5485
C -4.3816 -0.9147 0.8435
H -4.4981 -0.4355 -0.1344
H 2.6374 -0.4863 6.7952
H 4.1433 -0.1491 5.0905
C -5.447 -1.1426 1.6252
H 3.5733 -0.8366 3.5559
H -5.2806 -1.551 2.6277
C -6.8387 -0.8042 1.3027
C -4.0501 -1.2072 6.1725
H -2.9845 -1.7878 2.222
C -5.1642 -0.7509 5.5521
C -7.3894 -0.9483 0.0192
C -7.6881 -0.2855 2.2905
H -7.2976 -0.1142 3.2999
H -4.0062 -2.1996 6.6269
H -6.7861 -1.374 -0.7903
N -8.6418 -0.6129 -0.2881
C -9.0066 0.0725 1.9903
N -5.2808 0.3548 4.7485
H -6.0885 -1.3423 5.6191
C -9.4276 -0.1199 0.651
Cl -11.0403 0.2925 0.1496
C -9.8245 0.629 3.1043
H -9.2374 0.7024 4.0578
O -10.9775 0.9765 3.0575
23
Energy=1.5950763212043402
Au 1.1043 1.9943 -0.4139
S 0.0 0.0 0.0
C -0.0 0.0 1.7782
C 1.1547 -0.0 2.58
C -1.237 -0.0267 2.4717
O -2.3666 -0.0449 1.7352
C 2.5114 0.17 1.9143
C 1.0519 0.0119 3.989
C -3.5964 0.0178 2.3807
O 2.9687 1.2928 1.7682
F -3.8769 1.2974 2.6795
N -1.3403 -0.0457 3.7896
C -0.2471 -0.0218 4.5175
N 3.0776 -0.9539 1.436
C 2.2885 -0.0022 4.8224
F -4.4979 -0.4216 1.4992
H -3.6167 -0.5853 3.2995
O 3.3485 -0.4353 4.4335
F -0.4381 -0.0614 5.827
H 2.7343 -1.866 1.705
H 3.9985 -0.8824 1.0178
O 2.122 0.5213 6.0441
H 2.9828 0.4545 6.4925
20
Energy=-0.057677475062601825
Au 2.3236 0.0 -0.1924
S 0.0 0.0 0.0
C -0.0 0.0 1.7801
N 1.1342 0.0 2.4101
N -1.2356 0.0002 2.3998
C -1.2728 0.0012 3.7956
C -0.0674 0.0013 4.5307
C -2.4962 -0.0002 1.6652
C 1.2396 0.0002 3.8006
O 2.3111 -0.0003 4.3633
C -2.4844 0.0021 4.5182
H -3.4484 0.0022 4.012
H -2.2955 -0.0016 0.5896
H -3.0863 -0.8965 1.9108
N -0.0523 0.0022 5.8684
C -2.4439 0.003 5.9035
H -3.0857 0.8972 1.9086
C -1.1816 0.003 6.525
H -3.3592 0.0038 6.4955
Br -1.1105 0.0042 8.438
36
Energy=2.397845656055036
Au 1.4591 1.6891 -0.5494
S 0.0 0.0 0.0
C 0.0 0.0 1.7802
C 1.1658 0.0 2.5631
H 2.1534 0.0659 2.105
C -1.2354 -0.0972 2.4282
H -2.1494 -0.0665 1.8369
C -1.2818 -0.213 3.8324
N -0.1562 -0.1927 4.5657
C 1.0181 -0.0838 3.946
H 1.9072 -0.0703 4.5879
C -2.5645 -0.3379 4.5685
C -3.7976 -0.4819 3.9263
H -3.8656 -0.5169 2.839
C -4.9779 -0.6013 4.669
H -5.9252 -0.7156 4.1432
C -4.9492 -0.5802 6.0649
C -3.6997 -0.4357 6.7319
C -2.5369 -0.3195 5.979
H -1.5626 -0.2146 6.4497
O -3.7648 -0.411 8.0826
O -6.0346 -0.6873 6.8638
C -7.3023 -0.826 6.2691
H -7.5554 0.0424 5.634
C -2.5709 -0.3475 8.8681
H -7.3705 -1.7429 5.6556
H -8.0284 -0.8915 7.0902
H -1.8849 0.3929 8.4181
C -1.8893 -1.7116 8.9254
H -1.6145 -2.0695 7.923
C -3.0024 0.1516 10.2386
H -3.4937 1.132 10.1542
H -0.9717 -1.6565 9.5316
H -2.5667 -2.45 9.3821
H -2.1322 0.2478 10.9057
H -3.7166 -0.5534 10.6919
31
Energy=2.08081419362281
Au 1.0778 1.9858 -0.4107
S 0.0 0.0 0.0
C -0.0 0.0 1.8372
N -0.7278 1.0223 2.4866
N 1.2505 0.0 2.5008
C 1.0349 0.6041 3.7681
C -0.1536 1.2319 3.7562
C 2.0843 -1.1549 2.2715
O 2.0551 0.6993 4.6658
H -1.7314 1.025 2.344
C 3.1982 -0.907 1.3077
H 3.2681 0.103 0.8868
C 2.0405 -0.1427 5.7382
F 1.9373 -1.4242 5.3717
C 1.3728 -2.4561 2.488
F 1.0094 0.1229 6.5516
F 3.1671 0.0351 6.4014
O 3.3971 -0.9743 2.7155
C 2.1939 -3.6128 2.7929
O 3.4104 -3.6431 2.6247
C 1.7129 -4.9298 3.4266
C -0.0271 -2.4275 2.364
H 2.5833 -5.4226 3.919
O 0.6363 -5.4822 3.3579
O -0.7122 -1.3075 2.0871
N -0.8569 -3.4668 2.4797
C 3.7259 -1.9307 0.4304
H -0.5761 1.9133 4.4877
H -0.4994 -4.3951 2.738
H -1.8446 -3.291 2.3491
N 4.1159 -2.6481 -0.3915
28
Energy=2.4069969495848555
Au 0.3319 2.224 -0.501
S 0.0 0.0 0.0
C -0.0 -0.0 1.7881
C 1.1917 -0.0 2.5303
C -1.2485 -0.0974 2.4267
H -2.1504 -0.0699 1.8136
C -1.3627 -0.2384 3.8042
C 2.5581 0.0827 1.8999
C -0.1668 -0.2449 4.5841
C -2.7558 -0.3877 4.3787
C 1.0975 -0.1235 3.9359
C -0.3147 -0.4445 6.035
H -3.4401 0.1966 3.7433
H 2.4903 0.6686 0.9729
Cl 0.9144 0.5083 7.089
O -1.133 -1.0637 6.6265
H -2.8188 0.0419 5.3875
H 3.2313 0.617 2.585
O 2.2761 -0.1708 4.5803
H 2.1558 -0.0423 5.5386
C 3.1439 -1.3007 1.5852
C -3.2289 -1.8479 4.4152
H 2.4999 -1.8412 0.8746
H 4.1453 -1.2077 1.1359
H -3.2162 -2.2898 3.4065
H 3.2354 -1.9051 2.5004
H -4.2574 -1.9111 4.8036
H -2.5814 -2.4516 5.0659
15
Energy=-0.5852045966438323
Au 2.2961 -0.0118 -0.2946
S 0.0 0.0 0.0
C -0.0 -0.0 1.7563
N -1.1727 0.0003 2.4701
N 1.0396 -0.0 2.571
C 0.5234 0.0003 3.8248
H -2.1169 0.0001 2.0985
C -0.8596 0.0007 3.8101
N 1.3734 0.0003 5.0012
O 2.5765 -0.0004 4.8326
O 0.7945 0.001 6.0802
C -1.9368 0.0009 4.8576
F -3.1392 0.001 4.2276
F -1.8954 -1.0805 5.6345
F -1.8952 1.0824 5.6344
8
Energy=1.5159945893000766
Au 0.9806 2.0075 -0.5057
S 0.0 0.0 0.0
C 0.0 0.0 1.8765
H 1.043 0.0 2.2199
N -0.7439 1.0052 2.562
H -0.4208 -0.9997 2.0819
H -0.317 1.9234 2.4388
H -1.699 1.0658 2.2098
20
Energy=0.24441219574983478
Au 1.792 1.2599 -0.716
S 0.0 0.0 0.0
C 0.0 -0.0 1.7533
C 1.0037 -0.0 2.6809
C 2.4883 -0.0184 2.369
F 2.7835 -0.835 1.3481
C -1.4393 -0.1285 2.2229
O -1.7647 0.8548 3.0533
F 2.9511 1.2119 2.0422
C 0.6977 0.0038 4.0782
F 3.1903 -0.426 3.4286
O -2.1634 -1.0164 1.8516
N 0.4674 -0.0068 5.2165
C -3.082 0.8182 3.6509
C -4.1132 1.4599 2.7429
H -4.2279 0.8825 1.814
H -2.9626 1.3671 4.5944
H -3.3356 -0.2285 3.871
H -3.8252 2.4915 2.4893
H -5.0892 1.4888 3.2524
30
Energy=2.0177893591076232
Au -2.2253 0.0655 -0.5414
S 0.0 0.0 0.0
C 0.0 0.0 1.8553
H -0.5244 0.8934 2.2206
H -0.4839 -0.9064 2.2365
C 1.4451 0.0 2.276
C 2.2405 1.1489 2.1451
H 1.8066 2.0659 1.741
N 1.9497 -1.1464 2.7497
C 3.2235 -1.184 3.1127
C 3.5801 1.12 2.5216
C 4.0992 -0.0842 3.0245
N 5.422 -0.2725 3.4428
H 5.6313 -1.2082 3.7717
H 4.2192 1.9949 2.4355
C 6.4451 0.6599 3.4518
O 6.3177 1.8132 3.0846
H 3.598 -2.1419 3.501
N 7.6317 0.1226 3.9298
H 7.6492 -0.8523 4.2164
C 8.8556 0.768 4.0776
C 9.0938 2.1133 3.7483
C 9.9683 0.0566 4.5925
Br 9.7359 -1.8076 5.0754
H 8.275 2.7068 3.3487
C 10.3677 2.6483 3.9419
H 10.5666 3.6919 3.6902
N 11.1579 0.5596 4.7722
C 11.3798 1.8403 4.4575
H 12.3914 2.2223 4.6238
24
Energy=0.7286337331849929
Au 1.5591 -1.6293 -0.4792
S 0.0 0.0 0.0
C 0.0 -0.0 1.7944
C 1.1241 -0.0 2.6672
C 2.5457 -0.1967 2.1675
C 0.8567 0.243 4.0347
C -0.4383 0.4137 4.5366
C -1.2923 0.15 2.34
N 1.9413 0.4515 5.0036
O 2.8621 -0.3729 5.0608
C 3.0037 -1.6717 2.1296
H 2.6304 0.21 1.1536
O 3.139 -2.2802 3.2841
H -2.138 0.1068 1.6509
H 3.259 0.3449 2.8059
C -1.5473 0.3455 3.6963
C -2.9338 0.4795 4.2607
H 2.9808 -1.6512 4.0327
O 3.2413 -2.276 1.0914
F -0.6295 0.5995 5.844
H -3.686 0.4328 3.462
O 1.8876 1.4346 5.7039
H -3.1445 -0.3232 4.9855
H -3.0512 1.4339 4.7978
22
Energy=3.244059225570343
Au 0.6707 -2.168 -0.5085
S 0.0 0.0 0.0
C -0.0 -0.0 1.7657
C 1.2316 -0.0 2.4784
N 2.4162 -0.1332 1.8049
C -1.2302 0.0515 2.4479
H 2.3651 0.0487 0.8065
C 1.1605 0.0686 3.8961
H 3.2708 0.1501 2.2666
H -2.1393 0.0306 1.8493
C -1.2713 0.1368 3.8382
C -0.0622 0.142 4.5524
C 2.4262 0.0136 4.707
H -0.1012 0.1984 5.6397
O -2.4065 0.2122 4.5814
C -3.647 0.1903 3.9156
F 3.0548 -1.1721 4.5788
H -3.7895 -0.7451 3.3441
F 3.3216 0.9538 4.3043
F 2.2136 0.2129 6.0133
H -3.7568 1.0456 3.2242
H -4.4217 0.2566 4.6907
10
Energy=1.2829754632117805
Au 2.3969 -0.0007 -0.1029
S 0.0 0.0 0.0
C 0.0 0.0 1.6944
N -1.2347 0.0 2.4248
C -0.9448 0.0001 3.6696
N 1.0544 0.0 2.5239
H -1.6847 0.0001 4.4744
C 0.5515 0.0001 3.8872
O 2.3289 -0.0001 2.2697
O 1.2133 0.0003 4.8785
20
Energy=3.3033791527774934
Au 0.2672 2.237 -0.5042
S 0.0 0.0 0.0
C 0.0 -0.0 1.7826
C 1.1842 0.0 2.5725
C 2.4805 0.269 1.9159
C -1.2342 -0.1604 2.412
H -2.1377 -0.1817 1.8047
C -1.3277 -0.2926 3.8007
C -0.1838 -0.2958 4.6218
Br -3.0867 -0.5047 4.4796
C 1.0824 -0.1649 3.9739
O 2.7591 1.0845 1.109
C -0.1448 -0.4479 6.0785
Cl 3.8347 -0.9069 2.4502
H 0.8304 -0.6755 6.5233
O 2.1513 -0.1618 4.7871
N -1.1684 -0.3067 6.836
H 2.9665 -0.353 4.2866
O -0.8435 -0.5156 8.1566
H -1.6823 -0.3758 8.6163
23
Energy=0.9431666699520619
Au 0.4149 2.2088 -0.4976
S 0.0 0.0 0.0
C 0.0 0.0 1.7857
C 1.2036 0.0 2.5062
H 2.1682 0.0589 2.0052
C 1.1435 -0.0715 3.8936
C -1.2188 -0.0866 2.4749
H -2.1441 -0.0614 1.8979
C -1.2641 -0.174 3.8773
C -0.0577 -0.1599 4.593
C -2.5606 -0.2707 4.5851
H -0.028 -0.2368 5.6785
C -3.6672 -0.9298 4.0522
H -3.6254 -1.4331 3.084
N 2.4107 -0.0661 4.662
C -2.7604 0.3102 5.8544
O 3.4488 0.0193 4.0298
O 2.3296 -0.1441 5.876
H -1.9606 0.8734 6.3449
C -4.8377 -0.955 4.816
H -5.7362 -1.4632 4.4525
N -3.9031 0.2472 6.5317
N -4.9465 -0.3893 6.0183
26
Energy=0.8424261172106953
Au 0.985 2.0095 -0.5005
S 0.0 0.0 0.0
C 0.0 -0.0 1.8516
C -0.8039 1.108 2.461
C -0.1838 2.2729 2.9196
C -2.1999 1.0534 2.5517
F 1.1629 2.3419 2.8056
H -2.7227 0.1663 2.1872
H 1.0321 -0.0 2.2205
H -0.452 -0.9761 2.09
C -0.8547 3.3746 3.4647
C -2.2666 3.273 3.5571
C -2.9159 2.1145 3.0862
H -4.0019 2.0697 3.1541
C -0.0415 4.5753 3.8763
C -3.1159 4.3428 4.1326
H 0.9838 4.489 3.4975
H -0.4852 5.5064 3.4989
N -2.571 5.2725 4.9464
C -3.3798 6.1871 5.4433
H -0.0066 4.6765 4.9705
C -4.7406 6.1415 5.1126
H -2.9779 6.96 6.1085
N -4.425 4.3065 3.8224
N -5.2374 5.2158 4.3257
F -5.5801 7.0441 5.5969
17
Energy=1.89939304358012
Au 1.2517 -1.8736 -0.5062
S 0.0 0.0 0.0
C -0.0 -0.0 1.7764
C 1.1547 0.0 2.5815
C -1.2305 0.0558 2.4444
H -2.1455 0.0365 1.8548
C -1.3317 0.1299 3.8423
C -0.1378 0.1002 4.5938
C 1.1027 0.0115 3.9682
F -0.1574 0.138 5.917
C -2.6389 0.2175 4.5519
H 2.0095 -0.0348 4.5715
Cl -4.0858 0.1771 3.4586
O -2.7971 0.3081 5.7245
N 2.4869 -0.0756 1.9582
O 2.8478 0.8809 1.3071
O 3.1119 -1.1095 2.1375
26
Energy=0.6253606275973457
Au 2.3138 -0.0033 -0.2028
S 0.0 0.0 0.0
C -0.0 0.0 1.7542
N 1.0431 0.0 2.5642
N 0.5792 -0.0 3.8473
C -0.7367 -0.0 3.8184
N -1.149 -0.0001 2.4997
H -2.0955 0.0004 2.1432
C -1.6234 0.0 4.9789
C -3.0193 -0.0036 4.8642
H -3.4971 -0.0069 3.881
C -3.8437 -0.0036 5.9929
C -3.2695 0.0001 7.2725
C -1.0595 0.0037 6.2721
C -1.8668 0.0038 7.3974
H 0.0276 0.0066 6.3633
H -1.4393 0.0066 8.4016
O -3.9723 0.0004 8.428
C -5.3903 -0.0039 8.3861
H -5.7476 -0.8975 7.8404
H -4.9248 -0.0066 5.861
H -5.7529 0.8854 7.837
C -5.9006 -0.0028 9.8126
H -5.5476 0.891 10.3489
H -5.5421 -0.8922 10.3523
H -7.0012 -0.0061 9.8238
22
Energy=0.9207456559468508
Au 0.9516 2.0315 -0.4787
S 0.0 0.0 0.0
C -0.0 -0.0 1.858
H 1.0368 -0.0 2.2109
C -0.7823 1.1156 2.4849
C -0.0848 2.2515 2.9288
H -0.4399 -0.9809 2.0936
C -2.1902 1.0645 2.5836
C -2.9584 -0.1274 2.0786
C -2.8855 2.1431 3.1437
O 1.267 2.2824 2.7878
C -0.8047 3.3239 3.4761
H -2.71 -0.3254 1.0243
H 1.6105 3.1062 3.1655
H -2.7073 -1.0368 2.6506
C -2.1948 3.2823 3.5915
H -4.0386 0.038 2.1635
O -4.2417 2.1082 3.2574
O -2.9582 4.2794 4.1125
H -4.5262 2.9479 3.6479
Br 0.1247 4.8944 4.0665
H -2.394 5.02 4.3822
44
Energy=1.2705178752440025
Au 2.1418 0.7606 -0.4015
S 0.0 0.0 0.0
C 0.0 0.0 1.7813
N 1.0809 0.0 2.4694
N -1.288 -0.0497 2.3734
C -2.4482 0.324 1.6118
C -2.5093 1.6345 1.1373
N 0.9431 -0.0133 3.8421
H 1.8403 -0.1294 4.304
C -1.4454 -0.3664 3.7177
H -1.7118 2.3259 1.4038
C -3.4457 -0.6193 1.3254
C -3.3705 -2.0392 1.7996
C -0.1385 -0.7124 4.3905
H -2.3269 -2.3571 1.9252
O -2.5158 -0.392 4.2807
C -0.168 -1.1714 5.7859
C -3.5721 2.0369 0.3294
C -4.542 -0.1598 0.5669
C -4.6191 1.1378 0.0751
H -3.8733 -2.7165 1.0984
C 0.9964 -0.9482 6.6246
O -0.0186 -2.1162 4.7231
H -5.4707 1.4847 -0.5075
H -3.8629 -2.1351 2.7807
H -1.1343 -1.1839 6.3054
C -3.6634 3.4116 -0.2591
C -2.3933 4.165 -0.5355
N 1.9417 -0.7547 7.2658
O -4.742 3.9046 -0.5308
O -5.537 -1.1055 0.3602
C -6.3401 -1.0704 -0.7297
C -1.1815 3.5348 -0.8549
H -1.0706 2.4501 -0.8948
C -0.0928 4.3485 -1.1374
F -5.6437 -0.9347 -1.864
F 1.0922 3.7996 -1.4498
F -7.2266 -0.0653 -0.6782
C -2.4322 5.5713 -0.5399
N -1.3726 6.3334 -0.804
F -7.0085 -2.213 -0.7683
H -3.375 6.0766 -0.3104
C -0.2161 5.7377 -1.0994
H 0.6526 6.3667 -1.3233
51
Energy=2.5749086510413766
Au 2.2621 -0.0083 -0.5706
S 0.0 0.0 0.0
C 0.0 -0.0 1.7326
C 1.2808 0.0 2.5106
C -1.1904 -0.0042 2.4763
C -2.4938 -0.0265 1.8008
N -2.6434 -0.0265 0.5198
O 2.4211 0.0074 2.0583
C -1.1468 -0.0031 3.9362
N -3.6233 -0.0375 2.6147
N 1.1136 -0.0158 3.8719
C -4.8734 0.0414 2.0111
N -0.0139 -0.0162 4.6009
C -2.3874 -0.0036 4.6966
C -3.9131 -0.0569 -0.0767
H 1.9792 -0.0216 4.4051
N -5.0458 0.0389 0.7449
C -3.6204 -0.0078 3.9864
S -4.0498 -0.2027 -1.7127
S -6.1218 0.1322 3.2796
C -4.8629 0.0562 4.5276
C -2.522 -0.1099 6.077
C -4.9221 0.3277 5.9995
O -3.7514 -0.2001 6.6504
N -1.5106 -0.2182 6.9425
C -5.0096 1.7849 6.2942
H -5.7667 -0.1631 6.5067
N -5.0662 2.9197 6.5177
H -0.5895 -0.1788 6.4963
C -1.6886 -0.2002 8.3854
H -0.7985 -0.6617 8.8372
C -1.9196 1.2091 8.9538
H -2.5437 -0.8442 8.6313
H -0.9593 1.7433 9.0376
H -2.5347 1.783 8.2426
C -2.634 1.1856 10.3177
C -4.0545 0.6834 10.1937
C -5.0437 1.4981 9.6178
H -4.7936 2.5161 9.3119
C -6.3415 1.0256 9.4077
H -2.637 2.2057 10.7329
C -4.4 -0.6198 10.5667
H -3.6767 -1.2955 11.0228
H -2.0739 0.5557 11.0279
C -5.6985 -1.0777 10.3453
C -6.6839 -0.2792 9.7679
H -7.0891 1.6819 8.9575
H -7.6844 -0.6838 9.6208
N -6.0366 -2.4642 10.7314
O -5.1549 -3.1388 11.2381
O -7.1743 -2.8469 10.515
31
Energy=1.9317758120417754
Au 2.2618 -0.2821 -0.3579
S 0.0 0.0 0.0
C 0.0 0.0 1.7633
N 1.1231 -0.0 2.4994
C 0.6787 0.1376 3.8252
H 1.2659 -0.3621 4.6055
N -1.1987 0.0212 2.3649
C -0.9289 0.1089 3.7457
N 0.4324 1.6071 4.1337
C -0.8873 1.6021 3.9986
O -1.735 -0.7445 4.5221
O 1.2764 2.6441 3.8332
C -1.7064 -0.5428 5.862
C -1.8413 2.6594 3.8134
H 1.8003 2.2906 3.0858
C -0.7557 -1.1933 6.6678
C -2.6553 0.2897 6.4661
F 0.1186 -1.981 6.0642
F -3.5495 0.9164 5.7143
H -2.848 2.3211 3.5611
C -2.671 0.4625 7.8558
C -1.7425 -0.1855 8.6512
C -0.777 -1.0025 8.0552
N 0.2107 -1.6459 8.9388
H -1.7529 -0.0688 9.7337
O 1.2412 -2.0489 8.4321
C -1.5525 3.9659 3.9657
O -0.0709 -1.7102 10.124
H -0.5464 4.3017 4.2253
H -2.3268 4.7251 3.8346
F -3.5925 1.258 8.3926
26
Energy=0.2735131355986642
Au 0.9754 2.059 -0.3955
S 0.0 0.0 0.0
C -0.0 -0.0 1.7871
C -1.2193 0.0222 2.5144
C -2.5176 -0.2341 1.7322
C -1.2178 0.19 3.9119
C 1.2065 0.0 2.5126
C 0.0003 0.1093 4.633
F -2.9421 0.8419 1.0659
Br 2.8775 -0.1252 1.6377
C 1.2061 0.061 3.9166
C -2.4944 0.6683 4.6322
F -2.3265 -1.229 0.8488
C 0.0194 -0.0875 6.1577
F -3.2089 1.4562 3.8117
F 0.1047 1.0506 6.847
F -2.1693 1.4413 5.6787
F -3.5093 -0.6552 2.5256
O 2.4209 0.0118 4.5541
C 3.0619 1.1811 4.9039
F -3.2829 -0.3088 5.0741
F 1.0466 -0.8633 6.5254
H 4.1154 0.9293 5.0934
F -1.0921 -0.7315 6.5493
F 2.9648 2.1022 3.9239
F 2.5145 1.7281 6.0032
40
Energy=3.7100742294087214
Au -2.2241 0.1047 -0.5397
S 0.0 0.0 0.0
C -0.0 0.0 1.8574
H -0.495 -0.9017 2.2378
H -0.5257 0.8932 2.2207
C 1.4303 0.0 2.284
N 1.9766 -1.0812 2.8414
C 2.3909 1.0383 2.1468
N 3.2639 -0.7566 3.0629
C 3.5645 0.5201 2.6708
C 4.9227 1.114 2.8402
H 4.9308 2.1464 2.4665
C 4.1188 -1.6759 3.7875
H 3.6524 -2.6652 3.6723
H 5.1064 -1.7137 3.3037
H 2.2452 2.0244 1.7129
H 5.228 1.1279 3.8993
H 5.6888 0.5479 2.2837
C 4.2685 -1.3154 5.2516
C 3.14 -0.9457 5.9972
C 5.5135 -1.3661 5.8839
H 6.4043 -1.6479 5.3169
H 2.154 -0.8969 5.5322
C 5.6319 -1.0678 7.2457
C 3.252 -0.6163 7.3464
O 2.1504 -0.1948 8.0232
C 4.5097 -0.693 7.981
S 1.6402 -0.8929 9.5617
H 6.6059 -1.1236 7.7408
O 4.5297 -0.429 9.3185
H 5.4218 -0.5594 9.6657
C 2.0563 -2.6084 9.202
C 1.1579 -3.4889 8.6468
O 0.165 -0.846 9.4513
S 3.5748 -3.3671 9.584
C 2.9791 -4.8832 8.9784
C 1.6882 -4.8006 8.5083
Cl 3.985 -6.2797 9.0006
H 1.1523 -5.652 8.0899
H 0.1496 -3.1776 8.3712
31
Energy=1.9147178654450157
Au 1.2748 -1.843 -0.5374
S 0.0 0.0 0.0
C -0.0 0.0 1.7716
C -1.2259 0.0832 2.4586
H -2.1524 0.061 1.8831
C -1.2545 0.1776 3.8429
C 1.1764 -0.0 2.5327
F 2.3627 -0.1439 1.9257
C -0.0651 0.2107 4.5948
C 1.1731 0.088 3.9315
C -0.234 0.338 6.0659
H -2.2056 0.2353 4.3735
O 2.3337 -0.0329 4.621
Cl 1.022 1.3388 6.9075
C 3.3087 0.996 4.4697
O -1.1593 -0.0733 6.6875
H 3.6707 1.042 3.4303
H 2.8417 1.9669 4.7174
C 4.4507 0.7172 5.4044
C 4.2959 -0.0628 6.5468
H 3.3447 -0.5329 6.7873
C 5.7243 1.2645 5.1777
H 5.9208 1.8784 4.2954
C 5.3602 -0.2579 7.4146
N 5.1446 -1.0255 8.6456
O 4.4297 -2.0111 8.5383
O 5.6396 -0.6055 9.6702
N 6.6211 0.2609 7.187
C 6.7669 1.0344 6.0496
O 7.6043 0.0271 7.9244
H 7.7821 1.4066 5.9225
22
Energy=1.9291414270117555
Au 0.0011 -2.2511 -0.5031
S 0.0 0.0 0.0
C 0.0 -0.0 1.7623
C 1.1888 0.0 2.5121
F 2.3372 -0.1006 1.8463
C -1.1889 0.0716 2.5087
C 1.2382 0.0772 3.9112
F -2.3516 0.0456 1.8683
C -1.2135 0.1528 3.8951
C -0.004 0.1611 4.609
H -2.1812 0.2078 4.3881
C 2.5592 0.0665 4.5881
O 0.0519 0.2412 5.9358
H 3.4164 0.0015 3.8771
C -1.1395 0.3255 6.7134
O 2.7508 0.1193 5.7812
H -1.7674 -0.5635 6.5228
H -1.7157 1.2179 6.4092
C -0.7279 0.406 8.168
H -0.0994 1.2918 8.3416
H -0.1499 -0.4848 8.4542
H -1.6193 0.4722 8.81
29
Energy=1.3494865820869064
Au 2.2642 -0.4619 -0.2379
S 0.0 0.0 0.0
C 0.0 0.0 1.7476
N 1.0693 -0.0 2.5396
N 0.6543 0.0095 3.826
N -1.1336 0.0068 2.5154
C -0.6615 0.0116 3.8194
C -2.5271 -0.0701 2.0955
C -1.5329 0.0526 4.94
N -2.3022 0.1005 5.8091
C -2.7609 -1.4272 1.4187
C -2.9757 1.1888 1.3648
O -2.0235 -2.3689 1.5317
C -3.0457 1.2479 -0.05
C -3.2483 2.3224 2.1667
H -3.1831 2.2245 3.2546
C -3.6024 3.5766 1.6276
O -3.9259 -1.4577 0.7587
H -2.851 0.3813 -0.6788
C -3.6405 3.5131 0.2429
C -3.3994 2.516 -0.4757
C -4.2582 -2.7131 0.1614
H -3.8136 4.4418 2.2578
H -3.113 -0.1357 3.0267
C -3.3002 -3.0893 -0.9627
H -4.2682 -3.5202 0.91
H -2.5764 -2.2861 -1.2612
O -3.3396 -4.1581 -1.5057
H -5.2698 -2.5878 -0.2511
20
Energy=0.26690097430837534
Au 0.5599 2.2026 -0.4622
S 0.0 0.0 0.0
C 0.0 -0.0 1.7458
N 1.1754 -0.0 2.4962
C 2.4899 0.1453 1.9885
N -1.0529 -0.0498 2.5402
C -0.5756 -0.081 3.8183
C 0.8053 -0.0337 3.8222
H -1.2408 -0.1354 4.6791
C 3.1045 1.4069 1.9461
H 1.541 -0.0212 4.622
C 3.1698 -0.9634 1.4798
Cl 2.2535 2.8086 2.5348
C 4.3841 1.5566 1.411
C 4.4425 -0.8153 0.9431
C 5.0582 0.4431 0.9066
F 5.0798 -1.878 0.4604
Cl 6.6457 0.6009 0.2312
H 2.6982 -1.9459 1.488
H 4.8561 2.5377 1.3778
34
Energy=1.906191428742858
Au 0.47 -2.2081 -0.4649
S 0.0 0.0 0.0
C -0.0 -0.0 1.7675
C -1.2073 0.0709 2.4835
C 1.1984 0.0 2.5038
F 2.3639 -0.1042 1.8782
F -2.3727 0.0553 1.8504
C 1.1996 0.0556 3.8953
C -1.2114 0.1521 3.8732
F -2.371 0.2097 4.5411
C -0.0117 0.1369 4.5905
F 2.3435 0.0275 4.5685
O 0.0386 0.2624 5.9477
C -0.7835 -0.4318 6.7755
C -1.224 -1.7944 6.2852
O -0.5195 -2.4199 5.5128
C -1.0297 0.0439 8.0162
C -0.5616 1.3483 8.5111
N -2.4246 -2.206 6.7876
C -3.0881 -3.4289 6.5743
H 0.0181 1.9614 7.7812
C -2.5419 -4.4776 5.8161
C -4.3537 -3.576 7.1658
O -0.7927 1.7442 9.6329
H -4.7907 -2.77 7.7586
H -2.9425 -1.515 7.3179
H -1.5654 -4.3573 5.3559
H -1.5866 -0.5664 8.7295
C -3.2744 -5.6563 5.6646
H -2.8492 -6.4715 5.0748
C -4.5332 -5.8184 6.2452
C -5.0607 -4.7642 6.9954
Cl -6.6323 -4.9298 7.7371
H -5.1022 -6.7404 6.1239
26
Energy=-0.8608217056909839
Au 1.515 -1.65 -0.5254
S 0.0 0.0 0.0
C 0.0 0.0 1.8325
H -0.5917 -0.8411 2.2185
C 1.3802 -0.0 2.4946
H 1.8403 -0.9964 2.4048
H -0.546 0.9181 2.1018
C 2.3936 0.9575 1.833
O 3.3889 0.5268 1.3001
C 2.062 2.435 1.8774
C 1.2633 0.3265 3.9768
O 0.2477 0.6554 4.5399
O 2.4609 0.2281 4.5738
C 2.5414 0.5922 5.9659
H 1.1001 2.5579 1.3493
H 1.858 2.7153 2.9264
C 3.1404 3.3144 1.2602
H 3.3095 3.0394 0.209
H 3.4326 0.0679 6.3376
H 4.0986 3.1913 1.7869
H 2.8528 4.3756 1.3022
H 1.6517 0.2078 6.4856
C 2.6674 2.0956 6.1343
H 3.5309 2.481 5.5705
H 1.7564 2.6033 5.7849
H 2.8102 2.3445 7.1976
16
Energy=-0.12969662670673437
Au 2.2849 -0.1412 -0.3164
S 0.0 0.0 0.0
C 0.0 -0.0 1.7604
N -1.1834 -0.0092 2.4695
C -0.8689 -0.0026 3.8429
C -2.5472 0.0309 1.9701
N 0.5055 -0.0039 3.8171
O -1.6423 -0.0004 4.7787
N 1.0394 0.0 2.5472
H -2.623 -0.6674 1.1214
C -2.9929 1.4345 1.5697
H -2.3541 1.8388 0.7694
H -4.031 1.4136 1.2031
H 1.1075 -0.0049 4.6292
H -2.9454 2.1146 2.4335
H -3.1735 -0.3566 2.787
28
Energy=1.4879155190221272
Au 1.7047 1.4431 -0.4705
S 0.0 0.0 0.0
C 0.0 0.0 1.846
H -0.6029 0.837 2.2323
C 1.3423 -0.0 2.5551
H 2.0712 -0.6488 2.049
H -0.5177 -0.9312 2.1275
H 1.2281 -0.3159 3.6049
O 1.8484 1.3651 2.5778
S 3.444 1.6445 2.6728
O 4.1837 0.6132 1.9471
C 3.4859 3.2189 1.7214
C 4.13 3.0431 0.3644
H 2.4469 3.5548 1.617
H 4.0493 3.9056 2.3656
O 3.5072 2.6529 -0.6389
N 5.4316 3.3278 0.2867
C 6.2097 3.0962 -0.9034
H 5.9719 3.6348 1.0955
H 5.8823 3.7465 -1.7347
H 6.0826 2.0598 -1.263
C 7.6776 3.3726 -0.5921
O 3.7905 1.9706 4.048
O 7.9971 3.7798 0.5035
C 8.6645 3.0993 -1.6953
H 8.3253 3.5341 -2.6487
H 8.7443 2.0093 -1.8472
H 9.6495 3.4976 -1.4217
15
Energy=0.2220705692607671
Au 2.2061 0.2832 -0.5848
S 0.0 0.0 0.0
C 0.0 0.0 1.775
C 1.1218 -0.0 2.6115
H 2.1307 0.0089 2.2029
C -1.2649 -0.0153 2.3977
C 0.9566 -0.0084 3.9956
N 2.1634 -0.0018 4.844
O 3.2486 0.0181 4.2845
C -0.2978 -0.023 4.6034
F -2.3538 -0.0201 1.6243
C -1.4219 -0.0277 3.78
H -2.4331 -0.0384 4.19
H -0.3739 -0.0298 5.6892
O 2.0012 -0.0162 6.0531
35
Energy=1.7245421004405033
Au 1.4961 1.6833 -0.5216
S 0.0 0.0 0.0
C 0.0 -0.0 1.7756
C 1.1715 -0.0 2.563
O 2.3951 0.1543 1.9703
C -1.2342 -0.072 2.4244
C 2.9788 -1.0515 1.4444
H -2.15 -0.0189 1.8299
C -1.3246 -0.2047 3.8144
C -0.1529 -0.2749 4.5995
O -2.5314 -0.2518 4.4192
C 1.0949 -0.0931 3.9621
H 2.2207 -1.5945 0.8597
C 2.4255 0.0397 4.6822
H 3.1478 0.544 4.0264
C -0.2831 -0.5063 6.0982
F 2.9445 -1.1792 5.0046
H -3.2281 -0.1944 3.7526
C 4.1404 -0.6575 0.5544
H 3.3103 -1.693 2.2781
H 3.8167 0.1337 -0.1443
H 4.9843 -0.2634 1.1393
F 0.7983 -1.1132 6.6056
F 2.3123 0.7751 5.8158
S 4.7849 -2.0715 -0.4006
F -0.4643 0.6444 6.7674
C 3.3913 -2.3113 -1.4596
H 2.8536 -1.419 -1.7907
F -1.3226 -1.3035 6.3866
C 2.9914 -3.5082 -1.9071
C 1.869 -3.7869 -2.8451
F 3.6393 -4.6212 -1.5158
H 1.3352 -2.8636 -3.1061
H 1.1577 -4.492 -2.3833
H 2.2412 -4.2588 -3.7703
34
Energy=3.8375941219565814
Au 0.7494 2.1321 -0.4816
S 0.0 0.0 0.0
C -0.0 -0.0 1.7782
C 1.1708 -0.0 2.5523
C -1.2225 -0.1112 2.459
H -2.1631 -0.114 1.9079
C -1.2339 -0.2285 3.8409
N 2.4802 0.1194 1.8813
O 3.0983 -0.9071 1.686
C 1.1845 -0.092 3.9472
C -0.0541 -0.2256 4.601
O -0.139 -0.3464 5.9532
F -2.4032 -0.3573 4.4745
C 0.0716 -1.6711 6.4958
O 2.8602 1.2448 1.5958
C -0.6148 -2.735 5.6902
C 0.0476 -3.4098 4.6557
C -1.9823 -2.9849 5.8554
C -2.663 -3.8874 5.0078
C 2.4693 -0.0853 4.7286
C -1.9535 -4.5244 3.9905
O -3.9874 -4.0349 5.2732
C -0.5834 -4.3007 3.8013
I -3.0022 -5.8536 2.7093
F 1.3596 -3.1706 4.4769
H 3.1846 0.6354 4.307
H -4.3898 -4.6439 4.6322
H 1.151 -1.8773 6.551
H 2.9378 -1.0814 4.7042
H 2.2749 0.1871 5.7735
H -0.3412 -1.6239 7.5101
O -2.6633 -2.3558 6.8306