32
Energy=2.7258128601024114
C -2.2982 -0.2968 10.1622
C -1.6727 -0.2512 8.8038
C -0.3288 -0.2389 8.4834
C -0.0658 -0.1931 7.0926
C -1.2226 -0.1689 6.3206
S -2.6406 -0.2053 7.3662
C -1.4474 -0.1218 4.9071
C -0.5801 -0.0807 3.8492
N -1.0424 -0.0424 2.5296
C -0.0 -0.0 1.755
N 1.2118 -0.0 2.4536
C 0.9084 -0.069 3.8349
O 1.7397 -0.106 4.7207
C 2.527 0.069 1.9222
C 3.4937 -0.8509 2.3468
C 4.7882 -0.7776 1.8316
C 5.1209 0.1997 0.8887
C 4.1546 1.119 0.4726
C 2.862 1.0667 0.9974
S 0.0 0.0 0.0
H -2.9353 0.5837 10.3487
H -1.5157 -0.3195 10.9343
H -2.9304 -1.1909 10.2916
H 0.4522 -0.2628 9.2455
H 0.9226 -0.177 6.6372
H -2.4971 -0.1148 4.5956
H 3.2273 -1.6098 3.0818
H 5.5409 -1.4956 2.1652
H 6.134 0.2478 0.483
H 4.4089 1.8925 -0.2555
H 2.1121 1.7992 0.6961
Au -2.2942 -0.189 -0.2665
41
Energy=2.6292609401333635
C -6.0957 -1.3568 6.725
N -4.8292 -1.3523 6.0081
C -3.8196 -0.5587 6.5004
O -3.9534 0.099 7.5221
C -2.5129 -0.4956 5.747
C -1.3343 -0.4474 6.5248
C -0.0965 -0.3241 5.9137
C -0.01 -0.2176 4.5165
C -1.1855 -0.229 3.7258
C -2.4349 -0.3738 4.3618
N -1.1509 -0.0882 2.3495
C -0.0 0.0 1.7779
N 1.1931 0.0 2.4617
C 1.2994 -0.0918 3.8582
O 2.386 -0.0763 4.4023
S 0.0 0.0 0.0
C -4.6517 -2.4069 5.0254
C -5.283 -2.1416 3.6706
C -5.8857 -0.9135 3.3788
C -6.4464 -0.6671 2.1229
C -6.4049 -1.658 1.1427
C -5.7999 -2.8849 1.4264
C -5.2336 -3.1471 2.6803
C -4.5682 -4.4704 2.9594
H -6.2186 -0.4022 7.2484
H -6.1283 -2.168 7.475
H -6.9213 -1.5038 6.0135
H -1.4239 -0.5002 7.6105
H 0.8286 -0.2996 6.4925
H -3.3203 -0.3728 3.7274
H 2.0712 0.037 1.9524
Au 1.79 1.3293 -0.578
H -5.0746 -3.3373 5.4467
H -3.5787 -2.6088 4.8994
H -5.9039 -0.1362 4.1449
H -6.9098 0.2997 1.9136
H -6.837 -1.4778 0.1556
H -5.7596 -3.6594 0.6557
H -4.6129 -5.1311 2.0823
H -3.5058 -4.3412 3.2276
H -5.0435 -4.9994 3.8029
34
Energy=2.6640269237197765
O -1.8582 2.1359 10.7077
C -1.77 1.2745 11.736
O -2.5727 1.2512 12.6372
C -0.5369 0.422 11.6958
C 0.007 0.138 12.9555
C 1.2197 -0.5386 13.0661
Br 1.9476 -0.8932 14.7832
C 1.9064 -0.9498 11.9201
C 1.3469 -0.7075 10.6704
C 0.1139 -0.0396 10.5238
C -0.4464 0.0519 9.1781
C -1.7401 0.0399 8.6748
C -1.6361 0.0196 7.2713
C -0.2748 0.0181 6.9645
C 0.5539 0.0126 5.8178
C 0.2891 0.0044 4.4644
C 1.4105 0.0022 3.5429
O 2.644 0.0024 4.0565
N 1.2856 -0.0 2.2496
C -0.0 -0.0 1.7618
S 0.0 0.0 0.0
N -1.111 -0.0003 2.4432
C -1.0631 -0.0009 3.8279
O -2.0909 -0.0055 4.4925
O 0.431 0.0306 8.1555
H -2.6698 2.6551 10.8441
H -0.5265 0.4799 13.8422
H 2.8603 -1.4716 12.0069
H 1.8579 -1.0631 9.7754
H -2.6551 0.0282 9.259
H -2.419 0.0016 6.5216
H 1.6146 0.0174 6.0834
H 3.2534 0.0024 3.2981
Au -2.2839 -0.0015 -0.3501
18
Energy=0.35302962125493637
Br -3.1332 -2.8174 2.3987
C -2.887 -1.3424 1.1146
C -2.5675 -0.0872 1.9092
O -3.4199 0.7476 2.1259
C -1.1998 0.0139 2.5323
C -1.1579 0.136 3.9243
C 0.0567 0.1527 4.6001
C 1.256 0.0629 3.8821
C 1.2373 0.0 2.479
C 0.0 0.0 1.7875
S 0.0 0.0 0.0
I 3.0349 -0.1252 1.3549
I 3.0414 0.0627 5.0299
H -3.8344 -1.2134 0.5805
H -2.075 -1.6437 0.4465
H -2.0958 0.189 4.4796
H 0.078 0.2235 5.6879
Au -1.5038 1.6785 -0.5159
23
Energy=-1.4222634406097532
Au 0.8154 -2.0864 -0.503
S 0.0 0.0 0.0
C 0.0 0.0 1.8334
H 1.0383 0.0 2.1969
C -0.8038 -1.1082 2.5235
H -0.4198 0.9937 2.0712
H -0.3116 -2.0677 2.2887
C -2.2592 -1.2254 2.0345
C -0.712 -0.9345 4.0438
H -2.2402 -1.5519 0.9834
H 0.3256 -0.687 4.3408
H -1.3189 -0.0849 4.4008
C -1.076 -2.184 4.8372
O -1.1083 -3.2826 4.3283
C -1.3799 -1.9741 6.3068
H -0.6316 -1.318 6.7795
H -2.7402 -2.0402 2.5985
H -1.4228 -2.941 6.8247
C -3.093 0.0518 2.1375
H -2.356 -1.4683 6.4035
H -2.7033 0.8431 1.478
H -4.1335 -0.1393 1.8319
H -3.1258 0.4538 3.1639
24
Energy=2.3644825585250144
F 0.6913 0.4947 11.7589
C -0.2719 -0.0626 11.0037
F -0.4145 -1.3341 11.4249
F -1.423 0.5733 11.2788
C 0.0636 -0.0048 9.5356
C -0.96 0.0014 8.5817
C -0.6634 0.0019 7.2216
C 0.6787 -0.0027 6.7831
C 1.1306 -0.0016 5.3938
C 0.5145 -0.0006 4.1817
S 1.5006 0.0 2.6992
C 0.0 -0.0 1.7473
S 0.0 0.0 0.0
N -1.1129 -0.0004 2.3885
C -0.9501 -0.0006 3.7811
O -1.8828 -0.0007 4.5537
C 1.6978 -0.0048 7.7644
C 1.4 -0.0056 9.1217
H -2.0019 0.0122 8.906
H -1.4619 0.0079 6.4836
H 2.2248 -0.0022 5.3312
Au 2.2489 0.0066 -0.5137
H 2.7436 -0.0031 7.4478
H 2.2009 -0.0004 9.8623
24
Energy=2.7891389643866176
Au 0.6333 2.1769 -0.5331
S 0.0 0.0 0.0
C -0.0 0.0 1.7597
C 1.2231 -0.0 2.4797
N 2.4216 0.1503 1.8263
C 1.1637 -0.0839 3.888
C -1.2257 -0.0459 2.4593
H 2.4077 -0.0485 0.83
H 2.0994 -0.0876 4.4542
C -0.0377 -0.1536 4.5813
H -2.1395 -0.0232 1.868
H 3.2653 -0.109 2.3215
C -1.251 -0.1308 3.8449
O -2.3878 -0.1991 4.6003
C -0.0913 -0.2468 6.0794
C -3.6322 -0.1586 3.9324
H -0.6574 0.5978 6.5042
H 0.917 -0.2534 6.5164
H -3.7183 -1.0016 3.2189
H -0.6226 -1.1588 6.3966
H -3.7256 0.7736 3.3412
C -4.7148 -0.231 4.9098
C -5.6307 -0.2895 5.6978
H -6.4405 -0.3418 6.401
21
Energy=0.1548666718261814
C -3.2955 -1.232 4.3538
O -2.3301 -0.2254 4.6509
C -1.2029 -0.1834 3.9113
C 0.044 -0.2019 4.564
C 1.2424 -0.1037 3.8613
C 1.2196 -0.0 2.4723
C 0.0 -0.0 1.7744
C -1.1907 -0.0901 2.5117
F -2.3677 -0.0371 1.8755
S 0.0 0.0 0.0
O 0.0529 -0.2557 5.9515
C 0.1304 -1.4721 6.5347
F -0.0001 -1.309 7.8416
F 1.3083 -2.0706 6.292
F -0.825 -2.312 6.1054
H -2.8172 -2.2236 4.3005
H -4.0106 -1.2234 5.1865
H -3.8243 -1.0249 3.4118
H 2.1812 -0.1096 4.4155
H 2.1472 0.0875 1.9054
Au -1.1026 1.9555 -0.5188
46
Energy=2.309224253748682
Au 0.7384 2.1369 -0.4788
S 0.0 0.0 0.0
C 0.0 0.0 1.7804
C 1.1625 0.0 2.5966
C -1.2669 -0.1206 2.4015
O -2.4245 -0.1005 1.6909
C 2.5443 0.1474 2.0456
C -1.3488 -0.2295 3.7965
C -0.2048 -0.1576 4.5869
F -2.5341 -0.332 4.3894
C 1.0443 -0.0718 3.9913
O 2.8672 0.7676 1.0596
O -0.3743 -0.112 5.9585
C -2.9397 1.222 1.4018
H -2.1651 1.8112 0.8869
H 1.9316 -0.0359 4.6209
H -3.7734 1.0505 0.7093
O 3.4565 -0.4735 2.8205
C -0.2965 1.1236 6.5279
O 0.0296 2.1108 5.9286
C -0.6906 1.1511 7.985
H 4.326 -0.2848 2.428
C -3.3903 1.8779 2.6798
C -2.474 2.5995 3.4586
H -1.6053 1.7757 8.0481
H 0.0945 1.6736 8.5486
S -1.1159 -0.4313 8.792
H -1.4851 2.8341 3.0579
C 0.3964 -1.2037 8.7385
N 1.4195 -1.7587 8.722
C -2.7777 2.9478 4.7766
C -4.6528 1.5736 3.2115
H -5.364 0.9984 2.6137
C -4.9765 1.9299 4.5181
H -2.0399 3.4278 5.4215
C -4.0247 2.601 5.2916
S -4.3452 2.861 7.0596
H -5.9426 1.648 4.9458
O -3.0034 3.1983 7.6996
C -5.2461 4.4754 6.9442
C -4.3334 5.5874 6.4756
H -4.0286 5.4508 5.4307
H -6.1093 4.3176 6.2803
H -3.4385 5.6354 7.1083
Cl -5.182 7.1753 6.5825
H -5.6083 4.6665 7.9654
22
Energy=1.2248071371714269
C 4.1006 0.2483 6.1877
C 2.6256 0.3237 5.8549
O 2.49 0.1433 4.4486
C 1.2759 0.1674 3.8822
C 0.0794 0.3553 4.5862
C -1.1368 0.3542 3.9095
C -1.2039 0.1553 2.5273
C -0.0 0.0 1.7798
C 1.2224 -0.0 2.4754
Cl 2.7297 -0.2305 1.6514
S 0.0 0.0 0.0
C -2.5324 -0.0013 1.8796
O -2.8342 -0.7364 0.9994
Cl -3.8165 1.0809 2.6076
H 4.252 0.3836 7.2693
H 4.5135 -0.7284 5.8944
H 4.6576 1.0327 5.654
H 2.0566 -0.4612 6.3858
H 2.2009 1.3017 6.1456
H 0.089 0.4983 5.6654
H -2.0617 0.4959 4.4676
Au -0.0983 -2.2585 -0.4407
23
Energy=0.03244041073619381
C -0.3252 2.9689 5.3516
N 0.2488 2.728 6.6624
C 0.6236 3.6839 7.5676
N 1.1731 3.1671 8.6444
C 1.1682 1.813 8.4368
C 0.5983 1.505 7.2151
C 0.366 0.1867 6.5539
N 1.1484 -0.0036 5.3315
C 0.5755 0.0007 4.0996
N -0.7103 0.0022 3.874
N -1.0258 -0.0007 2.5498
C 0.0 -0.0 1.7548
S 1.5505 -0.0 2.6202
S 0.0 0.0 0.0
H 0.448 2.9517 4.5665
H -0.8102 3.9544 5.3482
H -1.0691 2.1998 5.1051
H 0.462 4.7455 7.375
H 1.5596 1.1125 9.175
H -0.6864 0.0438 6.2706
H 0.6187 -0.6042 7.2772
H 2.1465 0.1518 5.393
Au -2.3001 -0.0394 -0.2775
54
Energy=1.4749370340038293
O 2.1915 0.0141 4.4221
C 1.1163 0.001 3.8436
N 1.1033 0.0 2.4446
C -0.0 -0.0 1.7755
S 0.0 0.0 0.0
N -1.2636 0.0 2.3366
C -1.4397 -0.0089 3.7427
O -2.5714 -0.0121 4.193
C -0.193 -0.0145 4.539
C -0.4092 -0.0355 5.9031
C 0.4044 -0.046 7.0693
C 1.8321 -0.0232 7.2597
C 2.0774 -0.0558 8.6043
N 0.8425 -0.1035 9.2761
C -0.1749 -0.0902 8.3661
C -1.6224 -0.1519 8.7329
C 0.7352 -0.0982 10.7366
C -0.0865 -1.2521 11.3249
C 0.169 -1.3481 12.8425
C 0.3488 0.0419 13.4988
C -0.352 1.1375 12.6896
C 0.2709 1.2722 11.2884
C 3.3873 -0.04 9.3204
C -2.4438 0.0059 1.5138
C -3.0193 -1.2051 1.1212
C -4.1592 -1.1967 0.3168
C -4.7222 0.0177 -0.087
C -4.1466 1.2262 0.3164
C -3.0066 1.2229 1.121
Au 2.3104 -0.0008 -0.2408
H -1.482 -0.0496 6.1176
H 2.5582 0.0134 6.4567
H -1.8643 0.4923 9.5896
H -1.9365 -1.1767 8.9927
H -2.2452 0.1746 7.8912
H 1.7614 -0.2616 11.0882
H 0.1811 -2.1942 10.8224
H -1.1568 -1.0889 11.1413
H -0.6736 -1.8818 13.31
H 1.0641 -1.963 13.0318
H -0.0245 0.0246 14.5344
H 1.4225 0.2895 13.568
H -0.3054 2.1037 13.2156
H -1.4237 0.8896 12.6007
H 1.1406 1.9486 11.3175
H -0.447 1.7323 10.594
H 4.1945 0.0149 8.5776
H 3.4949 0.8286 9.9927
H 3.5542 -0.949 9.9243
H -2.5644 -2.1423 1.4459
H -4.6099 -2.1414 0.0046
H -5.6144 0.0223 -0.7175
H -4.5872 2.1755 0.004
H -2.5421 2.1554 1.4456
51
Energy=1.3979898515669147
C -4.2545 0.0333 8.997
C -2.906 0.0278 8.3613
C -2.5298 0.0198 7.0462
C -1.0851 0.0177 6.9909
C -0.1562 0.011 5.9129
C -0.2226 0.0054 4.5354
C 1.1043 0.0011 3.8356
O 2.1603 -0.0007 4.4471
N 1.1067 0.0 2.4414
C -0.0 0.0 1.7751
S 0.0 0.0 0.0
N -1.2626 0.0003 2.337
C -1.4552 0.0038 3.749
O -2.5989 0.005 4.1672
C -2.4398 -0.0014 1.5096
C -3.0035 -1.2162 1.1113
C -4.1398 -1.2155 0.3017
C -4.7115 -0.005 -0.1014
C -4.148 1.2073 0.3079
C -3.0116 1.2116 1.1174
C -0.6323 0.0247 8.3337
C 0.7426 0.0265 8.9098
N -1.7346 0.0308 9.1379
C -1.7091 0.0393 10.5652
C -1.6986 1.2524 11.2589
C -1.6802 1.2551 12.6543
C -1.6711 0.0557 13.3826
C -1.6185 0.0618 14.8888
C -1.687 -1.1526 12.668
C -1.7052 -1.1662 11.2733
H -4.4112 -0.8487 9.6404
H -5.0272 0.0304 8.2166
H -4.4084 0.9227 9.6309
H -3.1813 0.0157 6.1809
H 0.8919 0.0107 6.23
Au 2.3099 0.0023 -0.2446
H -2.5421 -2.1504 1.4356
H -4.5807 -2.1632 -0.0152
H -5.6008 -0.0063 -0.736
H -4.5953 2.1537 -0.0041
H -2.5565 2.1472 1.4464
H 0.9119 0.9163 9.5382
H 0.9079 -0.8533 9.5531
H 1.5026 0.0182 8.1195
H -1.7086 2.1885 10.6972
H -1.675 2.2086 13.1885
H -2.0387 0.9897 15.3041
H -2.172 -0.7885 15.315
H -0.5766 -0.0158 15.245
H -1.6871 -2.1 13.2134
H -1.7202 -2.1086 10.7223
43
Energy=1.6269131284980856
Au 0.4743 2.2274 -0.3035
S 0.0 0.0 0.0
C -0.0 0.0 1.7867
C -1.2172 0.0137 2.4771
H -2.1608 0.0185 1.9309
C -1.2254 0.0396 3.865
C 1.1984 -0.0 2.5321
F -2.4151 0.0409 4.4909
S 2.7381 -0.0297 1.6385
C -0.0564 0.0878 4.6344
C 1.1649 0.0923 3.9359
C 3.8923 -0.8419 2.8719
C -0.1311 0.1348 6.1377
C 2.4873 0.169 4.6558
H 2.9934 1.1116 4.4061
H 4.0401 -1.8754 2.542
H -1.1712 0.0613 6.4763
H 0.2865 1.0741 6.5357
N 3.3746 -0.9053 4.2103
N 3.0339 -2.1855 4.6934
O 2.3153 -2.2097 5.6763
O 3.5106 -3.1474 4.1289
H 2.388 0.1195 5.7411
C 5.2894 -0.1862 2.7912
H 5.5112 -0.0503 1.7117
C 5.4411 1.2036 3.4471
O 6.2056 -1.0451 3.3798
N 4.7097 2.2449 2.8736
O 6.2153 1.3384 4.364
H 3.9029 1.9526 2.3034
C 4.9871 3.5894 2.9943
H 6.6252 -0.5408 4.1015
H 0.4384 -0.6989 6.5757
N 4.0198 4.4308 2.4111
C 2.7159 4.1682 2.1104
H 4.3325 5.3952 2.3277
S 6.3257 4.2839 3.6409
O 2.1107 3.1396 2.2786
O 2.163 5.2969 1.5491
C 0.8596 5.2035 1.1156
H 0.2364 4.5604 1.7533
F 0.8629 4.6628 -0.1574
F 0.3803 6.4315 1.0196
27
Energy=-0.6839881567137722
C -3.8225 2.4601 -0.6773
O -3.5753 1.2657 0.0632
C -2.7432 1.3819 1.1071
O -2.2499 2.4262 1.4576
C -2.5369 0.0397 1.793
C -1.2135 -0.0371 2.5069
C -1.1731 -0.1125 3.9045
C 0.036 -0.1391 4.5917
C 1.2458 -0.0793 3.8817
C 1.2299 -0.0 2.4734
C 0.0 0.0 1.7815
S 0.0 0.0 0.0
O 2.4028 0.1583 1.8174
C 3.0414 -1.0202 1.3309
C 2.5036 -0.0917 4.569
N 3.5143 -0.1188 5.1393
H -4.2046 3.2576 -0.0232
H -4.5638 2.1989 -1.4419
H -2.8938 2.8109 -1.1542
H -3.3616 -0.0879 2.513
H -2.641 -0.7475 1.0343
H -2.1102 -0.1394 4.4645
H 0.0567 -0.1951 5.6811
Au 0.3746 2.2428 -0.4149
H 2.3994 -1.5385 0.6009
H 3.9647 -0.6927 0.8367
H 3.2955 -1.6984 2.1629
27
Energy=-0.7670513400930765
S 0.0 0.0 0.0
C 0.0 0.0 1.7594
N -1.046 0.0057 2.5497
C -0.5359 -0.0153 3.8378
C 0.8791 -0.0314 3.8
N 1.2076 0.0 2.4527
C 2.5279 -0.1515 1.8848
C 2.8551 -1.6133 1.5469
N 2.7529 -2.4753 2.7053
N 1.578 -3.0724 2.9914
N 1.7096 -3.6847 4.1252
C 2.9717 -3.4887 4.5979
C 3.6591 -2.7051 3.6932
C 1.6242 -0.0719 4.9768
C 0.8775 -0.0872 6.159
N -0.4639 -0.0641 6.2179
C -1.1674 -0.0296 5.0881
Au -2.3036 -0.0879 -0.2393
H 2.5999 0.4545 0.9684
H 3.2568 0.2504 2.6041
H 3.8704 -1.685 1.1294
H 2.1411 -1.991 0.8025
H 3.3069 -3.9188 5.5389
H 4.6736 -2.3168 3.6654
H 2.7142 -0.1071 4.9971
H 1.4015 -0.1247 7.1207
H -2.2605 -0.0166 5.1599
24
Energy=2.2208989298795814
F -4.4298 0.0014 9.4966
C -3.9456 0.0011 8.2536
C -4.8199 0.0005 7.1706
C -4.325 0.0002 5.8686
C -2.9391 0.0005 5.6543
C -2.0537 0.0011 6.7402
C -2.5636 0.0015 8.0386
Cl -1.4863 0.0023 9.4027
N -2.4472 0.0002 4.3223
N -3.3288 0.0001 3.281
C -2.6333 0.0 2.1654
C -1.2334 0.0 2.4451
C -1.1522 0.0002 3.86
N -0.0115 0.0002 4.5588
C 1.0764 0.0001 3.7971
N 1.1378 0.0 2.4545
C -0.0 0.0 1.7526
S 0.0 0.0 0.0
H -5.8937 0.0002 7.3657
H -4.9956 -0.0003 5.012
H -0.9786 0.0014 6.5751
H -3.1394 -0.0001 1.2011
H 2.0402 0.0001 4.3177
Au 2.2896 0.0007 -0.3555
31
Energy=-0.9392774884283045
O 1.926 2.4798 1.7367
C 2.7895 1.6425 1.5524
N 4.0197 1.9334 1.0262
C 4.304 3.2978 0.6201
C 5.069 0.9681 0.7733
C 2.5263 0.166 1.9167
N 1.2006 -0.0 2.4419
C -0.0 -0.0 1.7564
S 0.0 0.0 0.0
N -1.0507 -0.0239 2.5523
C -0.538 -0.006 3.8365
C 0.8769 0.0258 3.7912
N 1.718 0.0514 4.8094
C 1.1174 0.047 6.0075
C -0.2773 0.0161 6.1873
C -1.1587 -0.014 5.0946
C -2.652 -0.0448 5.232
H 4.5153 3.3467 -0.4629
H 5.183 3.6895 1.1609
H 3.43 3.9182 0.8475
H 4.8497 -0.0024 1.2305
H 6.0235 1.3258 1.1965
H 5.2217 0.8119 -0.3109
H 2.6602 -0.485 1.0387
H 3.2239 -0.1585 2.7037
Au -2.2756 -0.3241 -0.2654
H 1.7752 0.0694 6.8826
H -0.6785 0.0168 7.2038
H -3.1043 0.83 4.7372
H -3.0701 -0.9349 4.7346
H -2.9624 -0.0521 6.2864
29
Energy=0.8858491508330967
N -1.6146 0.0642 4.8689
C -0.7276 0.0031 3.8172
N 0.5814 -0.0067 3.8625
N 1.04 0.0 2.56
C 0.0 -0.0 1.761
N -1.1643 0.0134 2.5056
C -2.5353 0.1037 2.0298
C -3.0714 -1.1967 1.4735
C -3.2113 -1.3695 0.1096
C -3.6812 -2.5856 -0.4439
C -4.0128 -3.6379 0.3782
C -3.8914 -3.507 1.7878
C -3.4175 -2.2748 2.3491
N -3.2952 -2.1114 3.6966
C -3.6107 -3.1095 4.4953
C -4.0826 -4.3639 4.0395
C -4.2225 -4.5561 2.6833
S 0.0 0.0 0.0
H -1.1299 0.0019 5.7594
H -2.3574 -0.6362 4.7641
H -2.5752 0.877 1.2485
H -3.1416 0.444 2.8797
H -2.9424 -0.5488 -0.559
H -3.7719 -2.6818 -1.5279
H -4.3714 -4.5834 -0.0361
H -3.4915 -2.9359 5.5717
H -4.3251 -5.1494 4.7574
H -4.5842 -5.5064 2.2819
Au 2.2917 0.329 -0.178
19
Energy=1.5504336651659507
C -2.9605 -1.1604 1.4378
O -2.4006 0.056 1.9375
C -1.1897 -0.0485 2.5434
C -0.0 -0.0 1.7756
S 0.0 0.0 0.0
C 1.24 -0.0 2.4334
C 1.3054 -0.0808 3.8188
C 0.1344 -0.1593 4.59
C -1.1131 -0.1123 3.945
I -2.9386 0.0162 5.0255
C 0.3497 -0.2684 6.0647
O 1.0209 0.4592 6.72
Cl -0.3623 -1.7589 6.7862
H -3.9076 -0.8902 0.9534
H -3.1589 -1.8606 2.2657
H -2.2893 -1.6255 0.6995
Au -1.4935 1.6919 -0.4957
H 2.1531 0.074 1.8407
H 2.272 -0.0801 4.3255
20
Energy=-0.6864150954356478
F 4.2546 -0.4769 1.0104
C 3.2042 -0.9309 1.7042
O 2.3979 0.1709 1.9254
C 1.1854 0.0 2.5487
C 1.1123 -0.0518 3.947
Br 2.704 0.0409 4.9871
C -0.1178 -0.1527 4.5983
C -1.2862 -0.1675 3.8412
C -1.242 -0.0734 2.4487
C -0.0 0.0 1.7772
S 0.0 0.0 0.0
C -2.5297 -0.0628 1.6599
F -3.5953 0.1289 2.4839
F -2.7138 -1.2588 1.0327
F 2.5635 -1.853 0.9628
H 3.5436 -1.4011 2.6422
H -0.1536 -0.2038 5.6867
H -2.2562 -0.2262 4.3352
Au 1.6012 1.5653 -0.5662
H -2.5321 0.7259 0.8897
27
Energy=1.1054366741498667
S 0.0 0.0 0.0
C 0.0 0.0 1.844
C 1.4495 -0.0 2.3368
C 2.2471 1.2561 1.8982
C 3.2165 1.7385 2.9892
C 3.8928 0.5736 3.7037
N 2.8629 -0.2624 4.3493
C 1.4855 -0.1454 3.8642
S 3.378 -1.7458 4.9539
O 4.6924 -2.0493 4.3825
O 2.2677 -2.6983 4.8554
C 3.6328 -1.4049 6.699
Au -2.224 0.094 -0.5326
H -0.5243 0.8933 2.217
H -0.5246 -0.8936 2.2105
H 1.9446 -0.9008 1.9352
H 1.5513 2.0703 1.6395
H 2.8046 1.0311 0.9759
H 2.6824 2.3536 3.7319
H 3.9927 2.3858 2.5528
H 4.5992 0.9442 4.4651
H 4.4795 -0.0236 2.9861
H 0.9969 0.7234 4.3401
H 0.942 -1.0444 4.1776
H 4.3788 -0.6059 6.7961
H 4.0042 -2.3345 7.1513
H 2.6724 -1.1116 7.1405
30
Energy=-0.2767990131091211
S 0.0 0.0 0.0
C -0.0 -0.0 1.7662
N 1.0499 -0.0 2.563
C 0.5552 -0.0566 3.8413
C -0.8254 -0.086 3.8421
N -1.1789 -0.046 2.4839
C -2.4823 -0.1926 1.9303
C -2.9768 0.7754 1.0493
C -4.2529 0.6234 0.5023
C -5.0388 -0.4793 0.8468
C -4.5415 -1.439 1.7345
C -3.2618 -1.3032 2.2725
C -1.7741 -0.0839 4.9581
C -1.4614 -0.7995 6.1303
C -2.3217 -0.7851 7.228
C -3.5206 -0.068 7.1744
C -3.8441 0.6436 6.0153
C -2.9806 0.6422 4.9201
Au 2.2802 -0.2725 -0.2669
H 1.211 -0.0329 4.71
H -2.3614 1.6417 0.802
H -4.6364 1.377 -0.1891
H -6.0394 -0.5921 0.4235
H -5.1511 -2.3041 2.0047
H -2.8599 -2.048 2.9605
H -0.5393 -1.3834 6.1657
H -2.0597 -1.3481 8.1272
H -4.1991 -0.0639 8.0306
H -4.7749 1.2139 5.9655
H -3.2379 1.2208 4.0324
35
Energy=0.3611056968418904
C -10.8581 1.7773 1.289
C -10.3646 0.3256 1.2185
C -8.8579 0.2194 1.2307
C -8.1428 0.1388 2.4333
C -6.7488 0.0914 2.4715
C -6.0223 0.126 1.2695
C -6.7254 0.2066 0.055
C -8.1171 0.2532 0.0408
N -4.6185 0.0788 1.2022
C -3.7128 0.0161 2.2446
O -4.0177 0.0083 3.4229
N -2.4044 -0.032 1.777
C -1.2222 -0.0605 2.5046
C -1.1704 -0.1249 3.9089
C 0.0608 -0.134 4.5608
C 1.2643 -0.075 3.8465
C 1.2259 0.0 2.4583
C -0.0 0.0 1.7715
S 0.0 0.0 0.0
H -10.4822 2.3623 0.4344
H -11.9589 1.8275 1.2799
H -10.5009 2.2694 2.2076
H -10.7785 -0.2424 2.0684
H -10.759 -0.1505 0.3051
H -8.6917 0.1085 3.379
H -6.2154 0.0273 3.416
H -6.1729 0.2281 -0.8894
H -8.6383 0.3132 -0.9189
H -4.2404 0.1243 0.2636
H -2.2438 -0.0802 0.7719
H -2.1044 -0.1648 4.4633
H 0.078 -0.1869 5.6521
H 2.2224 -0.0826 4.3701
H 2.1463 0.0582 1.8745
Au -0.607 2.1752 -0.5327
24
Energy=1.4069361287548
Au 1.0281 -2.0126 -0.4872
S 0.0 0.0 0.0
C 0.0 -0.0 1.7768
C 1.1588 -0.0 2.5674
C -1.2234 0.103 2.4541
N 2.4719 -0.0822 1.8958
H -2.141 0.1002 1.8631
O 2.9905 0.9619 1.5584
C -1.2967 0.2024 3.8451
C 1.1331 0.0592 3.9619
C -0.1121 0.1482 4.6088
C 2.4504 0.0428 4.7183
H 3.2859 0.3914 4.0912
F 2.7428 -1.2023 5.16
F 2.3851 0.8712 5.7951
O 2.934 -1.2003 1.7331
C -2.6476 0.3168 4.4955
H -3.4263 0.5036 3.7473
C -0.2191 0.2235 6.1105
O 0.3572 -0.82 6.712
O -0.7907 1.1084 6.6966
H 0.2633 -0.6878 7.6718
H -2.6596 1.1031 5.2573
Cl -3.0918 -1.2264 5.3434
26
Energy=1.1481477247657639
S 0.0 0.0 0.0
C -0.0 -0.0 1.7807
C -1.2098 -0.0895 2.4899
C -1.2074 -0.1744 3.8794
C -0.0018 -0.168 4.6062
C 1.2052 -0.0791 3.8864
C 1.2092 -0.0 2.497
C -0.0029 -0.2533 6.0847
C 0.9622 0.4273 6.8528
C 0.9631 0.3459 8.2409
C -0.0125 -0.406 8.9117
C -0.969 -1.0992 8.1547
C -0.9648 -1.0232 6.7638
C 0.0496 -0.4578 10.4102
O 1.028 -0.1523 11.0391
O -1.0725 -0.8675 11.0455
Au 0.0168 2.2451 -0.5178
H -2.1515 -0.0822 1.9381
H -2.1591 -0.2177 4.4127
H 2.1561 -0.101 4.4223
H 2.1518 0.0558 1.9496
H 1.7087 1.0465 6.3522
H 1.7125 0.8696 8.8364
H -1.7084 -1.7436 8.6393
H -1.6973 -1.5974 6.1939
H -1.8061 -0.9403 10.4197
31
Energy=-0.9387585610210855
S 0.0 0.0 0.0
C -0.0 -0.0 1.8454
C 1.374 -0.0 2.5199
C 1.9391 -1.4165 2.618
O 1.245 -2.3344 3.033
N 3.2395 -1.6236 2.2454
C 4.1508 -0.6607 1.6198
C 5.401 -1.5012 1.3054
C 4.8234 -2.9179 1.0923
C 3.7722 -2.9892 2.204
C 4.2165 -3.1199 -0.3064
C 4.9085 -2.3825 -1.4111
C 5.8132 -1.4192 -1.2005
C 6.2667 -0.9712 0.16
Au 1.5333 -1.6521 -0.4774
H -0.5414 0.9272 2.0918
H -0.5837 -0.8501 2.2244
H 2.0492 0.7057 2.0194
H 1.251 0.3409 3.5633
H 3.7143 -0.24 0.6971
H 4.389 0.1786 2.2925
H 6.0131 -1.5378 2.2211
H 5.6071 -3.6783 1.2332
H 2.9539 -3.6974 2.0139
H 4.2308 -3.2663 3.1695
H 3.1233 -2.8065 -0.2793
H 4.1396 -4.1947 -0.5364
H 4.6345 -2.6534 -2.4354
H 6.2785 -0.93 -2.0623
H 6.3035 0.132 0.1958
H 7.3145 -1.2935 0.3039
30
Energy=-0.924782999689585
C -5.9819 0.1615 6.8992
O -4.8298 0.0581 6.0978
C -4.6589 0.9282 5.0651
C -5.5805 1.9238 4.726
C -5.3153 2.7566 3.6325
C -4.1505 2.5963 2.8915
C -3.2178 1.6014 3.2351
C -3.462 0.7613 4.3303
C -2.5064 -0.3405 4.7295
C -1.1412 -0.2464 4.0482
C -1.3066 0.0726 2.5619
C -1.9506 1.461 2.4204
C -0.0 0.0 1.8021
N 1.1154 0.0 2.4107
S 0.0 0.0 0.0
H -6.0474 1.1447 7.3992
H -6.9052 0.0019 6.3136
H -5.9046 -0.623 7.6638
H -6.4998 2.0558 5.2954
H -6.0359 3.5324 3.3622
H -3.9504 3.2439 2.034
H -2.3911 -0.3415 5.8245
H -2.9782 -1.313 4.4952
H -0.58 -1.1827 4.1791
H -0.5281 0.544 4.5097
H -1.9917 -0.6695 2.1132
H -2.1664 1.6849 1.3646
H -1.2133 2.2162 2.7481
H 1.9204 -0.05 1.7762
Au -2.1476 -0.4105 -0.7142
23
Energy=-0.9861465879024994
C -3.8846 -0.0351 3.1904
C -2.7569 -0.0184 4.2157
C -1.3675 0.0039 3.6278
N -1.2287 -0.0 2.2954
C 0.0 0.0 1.7743
S 0.0 0.0 0.0
N 1.1552 0.0 2.4604
C 1.0106 0.0221 3.7807
C -0.2236 0.0307 4.4324
C 0.0042 0.0155 5.9257
N 1.4463 0.2952 6.0918
C 2.1161 0.0012 4.8141
H -3.8385 0.8501 2.5396
H -4.8638 -0.0525 3.6926
H -3.8089 -0.9154 2.536
H -2.8254 -0.897 4.8838
H -2.854 0.8545 4.8874
Au 2.2605 -0.0244 -0.4405
H -0.2554 -0.976 6.3465
H -0.6045 0.7527 6.474
H 1.561 1.2845 6.298
H 2.5855 -1.0017 4.8232
H 2.9173 0.7227 4.593
32
Energy=1.6613831700491715
C -9.99 0.0047 4.85
O -8.9313 0.0036 5.7852
C -7.6554 0.0031 5.3473
C -7.2906 0.0037 3.9808
C -5.9474 0.0031 3.6383
C -4.9303 0.0019 4.6146
C -3.5408 0.0013 4.2962
C -2.5666 0.0002 5.271
C -1.1494 -0.0002 5.0132
C -0.5084 -0.0002 3.8093
N -1.0551 -0.0 2.5329
C 0.0 -0.0 1.7429
S 0.0 0.0 0.0
N 1.2581 0.0 2.3494
C 0.9651 -0.0001 3.6169
O 1.8926 -0.0002 4.5666
C -2.9522 -0.0005 6.7007
O -2.1644 -0.0015 7.635
N -4.3232 0.0001 6.9369
C -5.3188 0.0012 5.986
C -6.6698 0.0018 6.341
H -9.9671 0.9038 4.2099
H -9.9682 -0.8937 4.2089
H -10.9192 0.0049 5.4341
H -8.0482 0.0047 3.1991
H -5.6556 0.0037 2.5854
H -3.2241 0.0019 3.2512
H -0.5446 -0.0005 5.9261
Au -2.2699 -0.0018 -0.4011
H 1.4715 -0.0002 5.4385
H -4.5766 -0.0004 7.9208
H -6.9809 0.0013 7.387
30
Energy=-0.9874565004005463
C -2.5469 -2.4864 2.0006
C -3.1627 -1.1638 1.6423
C -4.4312 -1.0667 1.0581
C -4.9997 0.1733 0.7539
C -4.3029 1.3521 1.0265
C -3.0357 1.2807 1.6064
C -2.484 0.0364 1.9109
N -1.1667 -0.0131 2.4761
C 0.0 0.0 1.7525
S 0.0 0.0 0.0
N 1.0414 0.0 2.5713
N 0.5664 -0.0135 3.8426
C -0.7495 -0.0259 3.7997
C -1.6203 -0.0556 4.9721
C -1.0802 0.1686 6.2581
N -1.8411 0.137 7.3459
C -3.144 -0.1125 7.1718
C -3.6814 -0.3375 5.9017
N -2.9227 -0.3138 4.8066
H -3.1775 -3.3213 1.6652
H -1.5504 -2.6011 1.5455
H -2.422 -2.5648 3.0929
H -4.9831 -1.9844 0.8399
H -5.9916 0.2169 0.2979
H -4.7404 2.3235 0.7873
H -2.464 2.1838 1.8273
Au 2.3075 -0.0393 -0.2284
H -0.0115 0.3716 6.37
H -3.7791 -0.1371 8.0638
H -4.7484 -0.5467 5.7688
32
Energy=-0.09848086454106743
Cl -4.0627 -0.1035 8.8291
C -3.1108 -0.0761 7.3658
C -1.8074 -0.5834 7.3779
C -1.0568 -0.5676 6.2063
C -1.5916 -0.0488 5.012
C -2.8974 0.472 5.0269
C -3.6572 0.4564 6.1961
C -0.736 -0.0373 3.8217
N 0.578 -0.0231 3.8464
N 1.0412 -0.0 2.5646
C -0.0 0.0 1.7552
N -1.164 -0.0246 2.4956
C -2.4824 -0.1659 1.9752
C -3.223 -1.3183 2.2472
C -4.516 -1.4347 1.7405
C -5.098 -0.435 0.9461
C -4.3168 0.7052 0.6829
C -3.026 0.8538 1.1904
Cl -4.9733 1.9915 -0.3025
C -6.4898 -0.5776 0.3981
S 0.0 0.0 0.0
H -1.3924 -0.9894 8.3014
H -0.0371 -0.9548 6.1963
H -3.3286 0.911 4.128
H -4.6691 0.8633 6.2065
H -2.7868 -2.1095 2.858
H -5.0963 -2.3341 1.9589
H -2.4501 1.7534 0.9757
H -6.4861 -0.5357 -0.7029
H -6.9417 -1.5288 0.711
H -7.1353 0.2475 0.7393
Au 2.3099 -0.0238 -0.2165
35
Energy=1.1181931347393521
C 5.6743 1.6697 1.2528
C 4.6521 0.5645 1.3202
C 4.9468 -0.7262 0.843
C 4.028 -1.7679 0.974
C 2.7817 -1.5404 1.5633
C 2.4623 -0.2566 2.0028
C 3.3939 0.7855 1.9031
N 1.1594 0.0 2.5415
C 0.0 -0.0 1.7776
S 0.0 0.0 0.0
N -1.1896 -0.0191 2.2718
C -1.4283 -0.0285 3.6336
O -2.5833 -0.2012 4.0342
C -0.2755 0.2163 4.5212
C -0.3173 0.422 5.8927
C -1.3606 0.4619 6.8391
C -1.2413 0.7275 8.2266
C -2.525 0.6694 8.7792
C -3.4064 0.3654 7.7253
N -2.7037 0.2475 6.5871
C 1.0834 0.2137 3.9502
O 2.113 0.3481 4.5849
H 5.1994 2.6617 1.2352
H 6.3149 1.5744 0.3632
H 6.3346 1.639 2.1364
H 5.9171 -0.9146 0.3764
H 4.2796 -2.7654 0.6076
H 2.0445 -2.3394 1.6512
H 3.1313 1.7692 2.2952
Au 2.0071 0.9428 -0.6762
H 0.672 0.5895 6.33
H -0.3059 0.9399 8.7409
H -2.8059 0.8234 9.8187
H -4.486 0.226 7.7409
H -2.992 0.0186 5.6135
51
Energy=1.2052975622149549
C -4.2796 0.44 8.9593
C -2.9272 0.3542 8.3373
C -2.5441 0.2871 7.0261
C -1.1 0.2407 6.979
C -0.1675 0.1611 5.9055
C -0.2299 0.1021 4.5301
C 1.0989 0.0238 3.8363
O 2.1508 -0.0074 4.4535
N 1.1055 0.0 2.4429
C -0.0 0.0 1.7748
S 0.0 0.0 0.0
N -1.2649 0.016 2.3321
C -1.4589 0.1089 3.7374
O -2.6023 0.188 4.152
C -2.4378 -0.0073 1.4952
C -2.9249 -1.2383 1.0515
C -4.0491 -1.2853 0.2276
C -4.6812 -0.0947 -0.1377
C -4.192 1.1311 0.3208
C -3.0641 1.2028 1.1479
C -2.5337 2.5144 1.6558
C -0.6522 0.2858 8.3213
C 0.7209 0.2559 8.9013
N -1.759 0.3539 9.1201
C -1.7399 0.4172 10.5438
C -1.4677 1.6287 11.1879
C -1.4489 1.6947 12.5811
C -1.7122 0.5407 13.3252
Cl -1.6946 0.618 15.0669
C -1.99 -0.6744 12.6917
C -2.0 -0.7319 11.2981
H -5.0422 0.4737 8.1698
H -4.4979 -0.4249 9.6078
H -4.389 1.3436 9.5823
H -3.1912 0.2743 6.1576
H 0.879 0.1382 6.2271
Au 2.3081 0.043 -0.2535
H -2.4082 -2.1511 1.3531
H -4.4289 -2.2463 -0.1256
H -5.5623 -0.1186 -0.7834
H -4.6945 2.0577 0.0321
H -2.6221 2.5664 2.7528
H -3.0893 3.3589 1.2249
H -1.4691 2.6376 1.4012
H 0.9689 1.2021 9.4104
H 1.4738 0.0867 8.1223
H 0.8182 -0.5456 9.6516
H -1.2746 2.5211 10.5898
H -1.237 2.6339 13.0934
H -2.1911 -1.5641 13.2894
H -2.2067 -1.673 10.7851
28
Energy=0.18865355182437507
C -2.4676 0.0001 1.546
N -1.2502 0.0001 2.3553
C -0.0 -0.0 1.7739
S 0.0 0.0 0.0
N 1.1273 -0.0 2.4156
C 1.1634 0.0 3.8036
O 2.2316 -0.0003 4.3961
C -0.1474 0.0004 4.5271
C -0.053 0.0002 5.9031
C -0.9614 0.0006 6.9891
C -2.3694 0.0025 7.1135
C -2.685 0.0023 8.4786
C -1.4777 0.0002 9.1804
N -0.4489 -0.0007 8.2997
C 0.9544 -0.0031 8.6703
C -1.3959 0.0007 3.7695
O -2.5197 0.0011 4.2476
H -2.5065 0.8958 0.9087
H -2.506 -0.8953 0.9081
H -3.3168 -0.0004 2.237
Au 2.3166 0.0018 -0.2188
H 1.003 -0.0005 6.1939
H -3.0417 0.0038 6.2641
H -3.6776 0.0035 8.9233
H -1.2915 -0.0007 10.253
H 1.4665 -0.8968 8.2838
H 1.0287 -0.0035 9.7651
H 1.4693 0.8893 8.2844
27
Energy=-0.05283467096160594
Cl 8.06 -0.8345 -1.9
C 6.7834 -0.6594 -0.7252
C 7.1002 -0.3255 0.5956
C 6.0743 -0.1902 1.527
C 4.7335 -0.3724 1.1558
C 4.4386 -0.718 -0.1728
C 5.4564 -0.8611 -1.115
C 3.7002 -0.215 2.2366
O 4.0117 -0.1963 3.4161
N 2.4061 -0.0915 1.7825
C 1.2215 -0.0 2.5076
C 1.1755 0.0685 3.9108
C -0.0539 0.1416 4.5641
C -1.2571 0.1443 3.8487
C -1.2236 0.0652 2.4594
C -0.0 0.0 1.7737
S 0.0 0.0 0.0
H 8.1422 -0.177 0.8817
H 6.2909 0.0593 2.5668
H 3.4116 -0.9061 -0.4949
H 5.2288 -1.134 -2.146
H 2.2612 -0.0207 0.7782
H 2.1116 0.0623 4.463
H -0.0691 0.1964 5.6553
H -2.2139 0.202 4.3716
H -2.1464 0.0534 1.8766
Au 0.5152 -2.1971 -0.5323
12
Energy=-1.6367454621207012
C -1.6573 0.0001 4.9881
C -0.7377 0.0001 3.8177
N 0.5709 0.0001 3.8541
N 1.0398 0.0 2.5655
C -0.0 0.0 1.7557
S 0.0 0.0 0.0
N -1.1512 0.0001 2.5007
H -1.0499 0.0007 5.9023
H -2.3064 0.8914 4.9977
H -2.3057 -0.8917 4.9983
Au 2.3135 -0.0006 -0.2019
H -2.1005 0.0 2.1483
32
Energy=-0.5849318142997242
C 3.1342 -1.4475 2.2767
C 2.528 -0.074 1.9959
C 3.3398 1.125 2.4711
C 4.6102 0.9972 3.0443
C 5.3195 2.1292 3.4612
C 4.7662 3.4011 3.3093
C 3.4987 3.5377 2.7325
C 2.7939 2.4092 2.3165
N 1.1533 0.0 2.5074
C -0.0 0.0 1.76
S 0.0 0.0 0.0
N -1.0508 0.0209 2.5547
N -0.5948 0.0398 3.8468
C 0.7164 0.0253 3.8231
C 1.6032 -0.0175 5.0022
C 0.9691 -0.0983 6.3648
C 1.6882 -1.298 5.8213
H 2.468 -2.2275 1.8813
H 3.2657 -1.6194 3.3544
H 4.1109 -1.5489 1.7821
H 2.4216 0.0276 0.9036
H 5.0572 0.0117 3.1788
H 6.3085 2.0114 3.9104
H 5.3188 4.2842 3.6382
H 3.0574 4.5292 2.6071
H 1.8024 2.5201 1.8709
Au -2.3102 0.1477 -0.1896
H 2.5244 0.5616 4.9072
H -0.1223 -0.1228 6.382
H 1.4386 0.471 7.1705
H 1.0844 -2.1435 5.4812
H 2.6624 -1.5656 6.2406
24
Energy=3.2227876312563315
S 0.0 0.0 0.0
C -0.0 0.0 1.7386
N -1.0362 -0.0063 2.5052
C -0.7144 -0.0151 3.8734
O -1.5312 0.0287 4.7609
C 0.7874 -0.0374 4.0903
S 1.6081 0.0 2.52
C 1.4469 0.0061 5.2661
C 0.8755 -0.0738 6.6209
C 1.2228 0.9604 7.5308
C 0.7108 0.9126 8.808
O 0.8991 1.7797 9.8479
C 0.037 1.338 10.8924
O -0.4445 0.042 10.5356
C -0.1045 -0.1423 9.2293
C -0.4282 -1.1902 8.3909
C 0.0762 -1.1393 7.0772
Cl -0.2809 -2.5029 6.0507
Au -2.3015 -0.0199 -0.2973
H 2.5332 0.1538 5.231
H 1.86 1.7857 7.2111
H 0.5988 1.2759 11.8379
H -0.8176 2.0346 10.9928
H -1.0417 -2.0265 8.722
22
Energy=1.287442458907151
Cl 4.3843 0.2119 6.6265
C 2.7241 0.2081 5.9839
C 2.6742 0.1112 4.4581
O 3.6752 0.0415 3.7847
C 1.3078 0.1064 3.8356
C 1.233 -0.0 2.44
C -0.0 -0.0 1.7784
S 0.0 0.0 0.0
C -1.1955 0.0782 2.5339
C -1.1071 0.1666 3.9336
C 0.1248 0.1852 4.5857
Cl -2.578 0.2662 4.8659
O -2.4083 0.0019 1.9383
C -2.9667 1.2363 1.485
H 2.2226 1.13 6.3134
H 2.1828 -0.641 6.4266
H 2.1611 -0.0832 1.8733
Au -1.4837 -1.6938 -0.506
H 0.1297 0.259 5.6725
H -3.9105 0.9859 0.9839
H -3.1699 1.9022 2.3396
H -2.2917 1.7304 0.7689
25
Energy=-0.6411357520907363
C 2.5472 -2.5412 2.0626
C 2.9564 -1.2268 1.4032
C 2.5519 0.0174 2.2048
N 1.1189 0.0 2.5558
N 0.8002 -0.0859 3.845
C -0.5333 -0.135 3.8932
C -1.0973 -0.0884 2.6094
C 0.0 -0.0 1.7484
S 0.0 0.0 0.0
C -1.2399 -0.2318 5.2114
F -0.893 -1.3365 5.8905
F -0.9746 0.8191 6.0041
F -2.5716 -0.2719 5.0217
C 2.959 1.3303 1.5406
H 1.4521 -2.6277 2.1403
H 2.9076 -3.402 1.479
H 2.957 -2.626 3.0819
H 4.0528 -1.186 1.2872
H 2.5335 -1.1576 0.3887
H 3.028 -0.0399 3.194
H -2.1443 -0.1096 2.3228
Au -0.1994 2.2414 -0.5425
H 2.5385 1.4196 0.5295
H 4.0557 1.3746 1.461
H 2.6227 2.19 2.1393
54
Energy=2.6581112065990005
S 0.0 0.0 0.0
C -0.0 0.0 1.766
N -1.097 0.0002 2.4524
C -1.0759 0.025 3.8493
O -2.1402 -0.0283 4.4532
C 0.2501 0.0794 4.5279
C 0.4844 0.0181 5.8876
C -0.3543 0.0872 7.0476
C 0.1272 -0.4924 8.2496
C -0.6713 -0.6183 9.3719
C -1.9967 -0.1124 9.3651
C -2.4251 0.6328 8.2254
C -1.6395 0.6804 7.0935
C -3.8135 1.1982 8.231
C -4.7835 0.1302 8.844
C -4.3176 -0.0735 10.2912
N -2.8694 -0.3567 10.3791
C -2.5902 -1.3439 11.4218
C -3.9147 -1.472 12.1801
C -4.9647 -1.2031 11.0972
C -4.658 -1.1125 7.9703
O -3.9801 -2.0716 8.2661
N -5.2799 -0.9958 6.7305
C -4.8401 -1.8549 5.6228
C -6.3372 -0.1224 6.4836
O -6.874 -0.0487 5.4016
N -6.8164 0.6257 7.5754
C -6.1837 0.719 8.8065