28
Energy=-0.5730397718047094
C -3.8379 1.39 6.0549
O -2.6439 1.3032 5.2745
C -2.3431 0.0843 4.8048
O -2.9631 -0.9141 5.0712
C -1.0957 0.1048 3.9576
C 0.1533 0.1046 4.6111
C 0.2541 0.0752 6.1184
C 0.1157 -1.3463 6.6862
C 1.3119 0.0598 3.8253
C 1.2425 -0.0 2.4377
C -0.0 0.0 1.787
C -1.1821 0.0703 2.5567
C -2.5202 0.061 1.8567
F -2.9719 -1.2202 1.7069
F -3.4642 0.7328 2.5751
S 0.0 0.0 0.0
H -3.7769 0.7352 6.9369
H -4.7075 1.089 5.4524
H -3.9273 2.4394 6.3597
H 1.2255 0.5 6.4178
H -0.5182 0.7278 6.5531
H -0.8548 -1.7866 6.4141
H 0.1952 -1.3372 7.7847
H 0.9066 -2.0036 6.292
H 2.2882 0.0603 4.3172
H 2.1515 -0.0534 1.8363
H -2.4539 0.5179 0.859
Au -0.7078 -2.1397 -0.4997
19
Energy=0.08733970605461229
O 2.578 0.0001 4.0996
C 1.3281 0.0001 3.6111
N 1.2316 -0.0 2.2896
C 0.0 -0.0 1.7742
S 0.0 0.0 0.0
N -1.146 -0.0001 2.4538
C -1.0445 -0.0 3.7958
C 0.1955 0.0002 4.4436
C -2.2942 -0.0003 4.5399
C -3.6074 -0.0014 4.1361
C -4.3951 -0.0013 5.3287
C -3.5052 -0.0003 6.3695
O -2.234 0.0003 5.9037
H 2.5461 0.0003 5.0659
Au -2.2574 0.0036 -0.4533
H 0.2627 0.0003 5.5318
H -3.9443 -0.0022 3.1036
H -5.4799 -0.002 5.4059
H -3.6201 0.0002 7.4501
19
Energy=0.49144414987861385
F -2.5071 0.0715 4.4148
C -1.3175 0.0492 3.816
C -1.2444 0.0203 2.4301
C -0.0 0.0 1.7796
S 0.0 0.0 0.0
C 1.1697 -0.0 2.5722
C 1.0822 -0.0189 3.9671
C -0.1561 0.0268 4.5992
O -0.1847 -0.0364 5.976
C -0.8573 0.8845 6.7261
F -2.0422 0.422 7.1195
F -1.0492 2.027 6.0621
F -0.1332 1.1348 7.8116
C 2.5189 0.0317 1.939
O 2.9983 0.8812 1.2742
Cl 3.4611 -1.498 2.3111
H -2.1705 -0.0118 1.8549
Au 1.3196 -1.8368 -0.4774
H 1.9797 -0.0621 4.5852
25
Energy=2.1077494210021697
C 4.6644 -1.0485 3.9085
O 3.4411 -0.6509 4.4838
C 3.4101 -0.0836 5.7098
C 4.5542 0.121 6.4903
C 4.4419 0.6658 7.7725
C 3.1897 0.9994 8.291
C 2.0544 0.7947 7.5105
C 2.127 0.2764 6.2018
C 0.8778 0.1411 5.4665
C 0.546 0.0225 4.1599
S 1.5203 -0.0 2.6904
C -0.0 0.0 1.7488
S 0.0 0.0 0.0
N -1.1154 -0.0178 2.3843
C -0.9297 -0.0097 3.7786
O -1.826 -0.0155 4.5883
H 5.1637 -1.8225 4.5163
H 4.4157 -1.4669 2.9243
H 5.3505 -0.1935 3.7777
H 5.5369 -0.1526 6.1081
H 5.3444 0.818 8.3691
H 3.0978 1.4134 9.2968
H 1.069 1.0519 7.9062
H -0.0189 0.1998 6.0955
Au 2.2504 0.0926 -0.5034
36
Energy=1.6803647839107834
C 4.6709 2.5392 3.3913
N 3.3339 2.0312 3.1468
C 3.1668 1.3895 1.847
C 2.5548 -0.0196 1.9164
N 1.2106 -0.0 2.4939
C -0.0 -0.0 1.7354
S 0.0 0.0 0.0
N -1.0821 0.0282 2.4975
C -0.6139 0.0604 3.7739
C 0.7911 0.0458 3.7972
N 1.185 0.1181 5.0932
C 2.4909 0.1288 5.7101
N 0.0723 0.157 5.9077
C -1.0119 0.131 5.1464
C -2.3853 0.1776 5.7285
C 3.4553 -1.0469 2.5959
C 2.3096 3.0195 3.4445
H 4.9474 3.3883 2.7265
H 4.7518 2.8935 4.4315
H 5.4153 1.7406 3.2516
H 4.1459 1.2933 1.3503
H 2.54 2.0046 1.1743
H 2.3971 -0.3365 0.8761
Au 0.1316 -2.2588 -0.5425
H 3.1726 0.7217 5.0856
H 2.8903 -0.8912 5.8421
H 2.3798 0.5932 6.6976
H -2.3283 0.2393 6.8238
H -2.962 -0.7199 5.4517
H -2.9446 1.0488 5.3505
H 3.7359 -0.741 3.6107
H 2.956 -2.0258 2.6475
H 4.3817 -1.1652 2.0136
H 2.4109 3.9397 2.8271
H 1.3088 2.603 3.2697
H 2.366 3.3139 4.5044
16
Energy=1.07119032697441
N 3.6568 0.101 4.9768
C 2.618 0.0962 4.4602
C 1.3321 0.0902 3.821
C 1.2465 -0.0 2.4239
C -0.0 0.0 1.781
S 0.0 0.0 0.0
C -1.1719 0.0775 2.568
C -1.0715 0.1431 3.9652
C 0.1674 0.1578 4.6018
Cl -2.5173 0.2365 4.9322
C -2.5245 0.1074 1.9293
O -3.0776 1.0193 1.4297
Cl -3.3209 -1.5491 1.9955
H 2.1535 -0.0763 1.8241
Au -1.3297 -1.832 -0.4799
H 0.223 0.2211 5.6879
19
Energy=-1.0192828210036462
C 2.2728 0.0709 4.8983
C 1.0651 0.0857 3.9995
C -0.21 0.1945 4.5691
C -1.3617 0.2048 3.7794
C -1.2597 0.0936 2.397
C 0.0 -0.0 1.7764
C 1.1538 0.0 2.5944
I 3.0804 -0.1661 1.7124
S 0.0 0.0 0.0
C -2.7102 0.3721 4.432
F -3.7029 -0.1098 3.667
F -2.9845 1.6693 4.6668
F -2.7674 -0.2592 5.6188
H 2.9552 0.9028 4.6627
H 2.8516 -0.8579 4.7735
H 1.9737 0.155 5.9521
H -0.3009 0.2624 5.6545
H -2.154 0.072 1.7749
Au 0.8403 -2.0962 -0.5033
47
Energy=0.6771032641305283
S 0.0 0.0 0.0
C 0.0 -0.0 1.7746
N -1.1077 -0.0002 2.4637
C -0.9763 -0.0011 3.8107
S -2.3485 -0.003 4.8915
C -1.2859 -0.0029 6.2878
C 0.0428 0.0035 5.9443
C 0.2262 -0.0028 4.5189
C 1.4665 -0.0026 3.776
O 2.5997 -0.003 4.2188
N 1.2532 -0.0 2.3529
C 2.4307 0.0016 1.5239
C 3.0011 -1.2123 1.1331
C 4.1393 -1.2078 0.3263
C 4.7044 0.0046 -0.0804
C 4.1333 1.2155 0.3223
C 2.9951 1.2171 1.1292
C 1.1237 -0.0095 6.9913
C 0.5216 0.2756 8.3797
N -0.7327 -0.4291 8.6343
C -1.7769 0.0095 7.7148
C -0.5901 -1.879 8.6918
C -1.7867 -2.5541 9.3275
C -2.3636 -2.0232 10.4911
C -3.4496 -2.6556 11.0974
C -3.9772 -3.8297 10.5483
C -3.4135 -4.3621 9.3869
C -2.3271 -3.7239 8.7799
Au -2.29 -0.0037 -0.3335
H 2.5455 -2.1478 1.4616
H 4.5874 -2.154 0.0155
H 5.5958 0.0058 -0.7119
H 4.5767 2.163 0.0084
H 2.535 2.1514 1.4548
H 1.634 -0.9886 6.9746
H 1.9061 0.723 6.7412
H 1.2428 0.0146 9.1701
H 0.3182 1.3558 8.4733
H -2.0964 1.0303 7.9957
H -2.6593 -0.6367 7.838
H -0.4059 -2.338 7.6977
H 0.3069 -2.0911 9.2997
H -1.9544 -1.0974 10.9011
H -3.8894 -2.2312 12.0036
H -4.8287 -4.3239 11.0225
H -3.8242 -5.2738 8.946
H -1.894 -4.1373 7.8646
19
Energy=3.0561147576360326
F -2.5079 2.0711 2.0735
C -3.2085 0.9487 1.7988
O -2.403 -0.1738 1.9071
C -1.1833 -0.1183 2.5334
C -0.0 0.0 1.7765
S 0.0 0.0 0.0
C 1.2263 0.0 2.4624
C 1.2879 -0.1158 3.8478
C 0.109 -0.2602 4.5807
C -1.1354 -0.2776 3.9297
C -2.431 -0.4724 4.6518
O -3.3434 0.2906 4.6629
Cl -2.5574 -2.0683 5.4472
Cl 0.202 -0.3627 6.3146
F -3.6429 1.0249 0.5315
H -4.0711 0.8905 2.4785
Au -0.641 2.1525 -0.5227
H 2.144 0.1008 1.8808
H 2.2442 -0.0929 4.371
20
Energy=-1.3711323388931138
O -1.8812 -0.0397 4.636
C -1.0389 -0.0211 3.7766
N -1.2382 0.0004 2.4026
C 0.0 0.0 1.7538
N 1.0169 0.0 2.5402
C 0.506 -0.0048 3.9049
C 1.0204 -1.1529 4.7486
C 0.6679 -1.2577 6.1033
N 1.0807 -2.2513 6.8894
C 1.8671 -3.1964 6.3744
C 2.2691 -3.1745 5.0349
C 1.8429 -2.1406 4.2022
Br 3.3938 -4.5521 4.3566
S 0.0 0.0 0.0
H -2.1493 -0.0251 1.9586
H 0.774 0.9462 4.403
H 0.0125 -0.5069 6.5562
H 2.1953 -4.0028 7.0381
H 2.1376 -2.0887 3.1543
Au 2.3013 -0.0431 -0.2773
28
Energy=-0.5892474695382256
C 5.4597 -0.2557 4.8945
C 4.5791 0.9554 5.1468
O 3.3693 0.8943 4.3707
C 2.3727 0.1395 4.8443
O 2.3874 -0.4006 5.9265
C 1.1804 0.0998 3.9333
C -0.0631 0.1499 4.5792
C -1.2478 0.1449 3.8558
C -1.2458 0.0701 2.4582
C -0.0 0.0 1.779
C 1.2033 0.0 2.531
Br 2.8547 -0.2749 1.6236
S 0.0 0.0 0.0
C -2.5631 0.088 1.7218
C -2.9482 1.4854 1.2172
H 6.4094 -0.1492 5.4423
H 5.6842 -0.3589 3.8223
H 4.9642 -1.1737 5.2421
H 4.3158 1.0387 6.2115
H 5.0676 1.884 4.8205
H -0.0716 0.1917 5.6695
H -2.2033 0.1905 4.3835
Au 0.5538 -2.1882 -0.495
H -3.3457 -0.2817 2.4037
H -2.513 -0.6042 0.8682
H -3.0103 2.2049 2.049
H -2.2039 1.8593 0.498
H -3.9262 1.4607 0.7114
31
Energy=-2.110711519272505
C -4.1826 2.8556 -1.3923
C -3.6884 1.6912 -0.5404
N -4.2818 1.6852 0.794
C -3.7771 2.7311 1.6919
C -3.0008 2.1479 2.8845
N -2.1864 1.0213 2.445
C -2.9301 -0.107 1.882
C -4.3243 0.3879 1.4372
C -0.8313 1.1749 2.3855
O -0.2731 2.2099 2.7327
C 0.0 0.0 1.8548
S 0.0 0.0 0.0
C 1.4023 0.0 2.4463
H -3.9004 3.8266 -0.9545
H -3.7454 2.8098 -2.4027
H -5.2802 2.8332 -1.4782
H -2.5779 1.6988 -0.5062
H -3.9693 0.7451 -1.0316
H -3.0986 3.3897 1.1273
H -4.5972 3.3701 2.0721
H -2.3321 2.898 3.3206
H -3.6898 1.8047 3.6742
H -2.3913 -0.4871 1.0038
H -3.0303 -0.9339 2.6117
H -4.765 -0.352 0.7517
H -5.001 0.4425 2.3062
H -0.5036 -0.9533 2.0822
Au 0.5748 2.1886 -0.4368
H 1.9052 0.9517 2.2282
H 1.3563 -0.1127 3.5418
H 1.9931 -0.8252 2.025
21
Energy=-1.591012635534832
S 0.0 0.0 0.0
C -0.0 0.0 1.751
O 1.2487 -0.0 2.3193
C 1.01 -0.0 3.671
C -0.3804 -0.0 3.8487
N -0.9878 -0.0 2.5928
C -0.9424 -0.0 5.1353
C -2.4314 -0.0003 5.322
C -0.012 0.0001 6.1889
C 1.3954 0.0002 6.0197
C 1.9183 0.0001 4.7157
C 2.3348 0.0005 7.1966
Br -0.7039 0.0001 7.9785
Au -2.2861 0.0056 -0.3189
H -2.7584 -0.8838 5.893
H -2.9335 -0.0005 4.3459
H -2.7587 0.8833 5.8927
H 2.9948 0.0001 4.5414
H 3.3809 0.0005 6.8601
H 2.1748 -0.8823 7.8362
H 2.1747 0.8834 7.8359
32
Energy=-1.0198405943563722
C 0.9736 -0.0227 7.5992
C 0.3758 -0.0171 6.2149
C -1.0246 -0.0193 6.0403
N -1.648 -0.0155 4.8538
C -0.8446 -0.0089 3.8046
C 0.576 -0.0055 3.8278
C 1.1981 -0.0097 5.0761
N 1.0665 0.0 2.537
C 0.0 0.0 1.7593
N -1.1938 -0.0023 2.4578
C -2.5455 -0.0187 1.9075
C -3.3103 -1.2894 2.2926
C -4.6561 -1.3129 1.541
O -5.0985 -0.0154 1.181
C -4.853 0.942 2.1916
C -3.3465 1.2336 2.3172
S 0.0 0.0 0.0
H 1.6065 -0.9112 7.7595
H 0.1927 -0.0236 8.3738
H 1.6102 0.8621 7.765
H -1.6717 -0.0243 6.9242
H 2.2877 -0.0076 5.1601
H -2.4242 -0.0126 0.8143
H -3.4541 -1.291 3.3831
H -2.7157 -2.1808 2.0411
H -5.4238 -1.8252 2.1555
H -4.5625 -1.8683 0.5948
H -5.2586 0.5889 3.1608
H -5.4108 1.8483 1.9153
H -3.1059 1.4966 3.357
H -3.0487 2.0762 1.6745
Au 2.3024 0.0162 -0.2527
41
Energy=3.0502134124148625
F 3.4005 1.5385 12.1058
C 2.073 1.5715 11.9372
C 1.2587 1.8295 13.0388
C -0.1262 1.8615 12.8509
C -0.6781 1.6406 11.5907
C 0.1573 1.381 10.4866
C 1.5521 1.3473 10.6692
C -0.4117 1.1493 9.1674
C -1.7189 1.1179 8.6997
C -1.6515 0.8437 7.3187
C -0.3019 0.719 6.9928
C 0.4941 0.4568 5.8505
C 0.2254 0.2391 4.5206
C 1.4145 -0.0192 3.6442
O 2.5283 -0.1895 4.1009
N 1.1857 0.0 2.2714
C 0.0 -0.0 1.7792
S 0.0 0.0 0.0
N -1.1717 -0.0241 2.5396
C -1.1182 0.194 3.9456
O -2.1625 0.2951 4.5669
C -2.4587 -0.3253 1.987
C -3.4374 0.674 1.8954
C -4.6669 0.3814 1.2966
C -4.9202 -0.9053 0.8028
C -3.9511 -1.9031 0.9281
C -2.7215 -1.6166 1.5273
O 0.4337 0.9106 8.1493
H 1.7144 1.9993 14.0155
H -0.7804 2.0621 13.7019
H -1.7607 1.6693 11.4612
H 2.2238 1.1488 9.8344
H -2.6179 1.2726 9.2903
H -2.4608 0.7352 6.6066
H 1.5665 0.4193 6.0732
Au -2.0033 0.9232 -0.7035
H -3.2282 1.6668 2.2947
H -5.4312 1.1583 1.2236
H -5.8797 -1.1296 0.3316
H -4.1487 -2.91 0.5545
H -1.9488 -2.382 1.6127
24
Energy=2.9206798560828777
O 0.7806 0.0061 11.8061
C -0.291 0.0029 10.9842
O -1.4253 0.0006 11.4014
C 0.0829 0.0027 9.5427
C -0.944 -0.0001 8.5872
C -0.6556 -0.0005 7.227
C 0.6862 0.0018 6.7836
C 1.1336 0.0013 5.3939
C 0.5152 0.0004 4.1823
S 1.5008 0.0 2.6994
C 0.0 0.0 1.7477
S 0.0 0.0 0.0
N -1.1125 0.0002 2.3889
C -0.9494 0.0002 3.7824
O -1.882 0.0001 4.5546
C 1.7112 0.0045 7.7607
C 1.4206 0.0051 9.1186
H 0.4299 0.0059 12.7125
H -1.9783 -0.002 8.935
H -1.4565 -0.0024 6.4918
H 2.2277 0.0019 5.3281
Au 2.2492 -0.0032 -0.5125
H 2.755 0.0062 7.4368
H 2.2218 0.0073 9.8576
33
Energy=-0.5888835008419038
C -2.6604 3.5522 2.7358
C -3.1158 2.099 2.8255
C -3.4681 1.6301 4.2558
O -4.3807 2.5013 4.8929
C -4.1268 0.2504 4.2037
C -3.3242 -0.766 3.3827
C -2.9197 -0.1771 2.0274
N -2.2151 1.0867 2.2405
C -0.8554 1.1666 2.3792
O -0.2906 2.1418 2.8586
C 0.0 0.0 1.8493
C 1.4026 0.0 2.4562
C 1.4021 -0.2985 3.9558
S 0.0 0.0 0.0
H -1.8449 3.7809 3.431
H -2.3051 3.7816 1.7206
H -3.5275 4.1985 2.9432
H -4.0465 2.0254 2.237
H -2.5167 1.5684 4.8231
H -3.9246 3.329 5.0887
H -5.125 0.3904 3.753
H -4.2937 -0.1114 5.2302
H -3.9099 -1.6889 3.2399
H -2.4062 -1.0496 3.9274
H -2.3111 -0.8649 1.433
H -3.8163 0.0361 1.4223
H -0.4776 -0.9654 2.0793
H 1.8631 0.9811 2.2663
H 1.9992 -0.7508 1.9155
H 0.9336 -1.274 4.1727
H 0.8568 0.4784 4.5114
H 2.4304 -0.3322 4.3483
Au 0.6688 2.1582 -0.433
31
Energy=0.3222326736027735
O -4.4349 -1.0543 1.6415
C -3.2273 -1.0145 1.495
N -2.4821 0.0264 2.0845
C -1.1575 -0.0509 2.5975
C -0.9997 -0.0803 3.9927
C 0.2604 -0.0854 4.585
C 1.402 -0.0552 3.7788
C 1.267 0.0 2.3948
C 0.0 0.0 1.7804
S 0.0 0.0 0.0
N -2.4834 -1.9098 0.7698
C -2.9559 -3.0242 0.07
C -4.2665 -3.5263 0.177
C -4.6367 -4.6592 -0.5417
C -3.7465 -5.3155 -1.3995
C -2.4447 -4.8003 -1.5062
C -2.0519 -3.6825 -0.7735
N -1.4199 -5.3889 -2.391
O -1.7903 -5.899 -3.431
O -0.2579 -5.2961 -2.0243
Cl -4.2908 -6.7496 -2.2113
H -3.1137 0.5587 2.6768
H -1.8972 -0.1126 4.6155
H 0.3494 -0.1172 5.6729
H 2.3978 -0.0575 4.227
H 2.1517 0.0569 1.758
Au -1.7073 1.486 -0.5069
H -1.5367 -1.616 0.5242
H -4.9816 -3.0194 0.8198
H -5.6469 -5.0586 -0.4417
H -1.0231 -3.3366 -0.8754
49
Energy=1.1281195664959818
C 1.1714 -1.2194 15.547
N 1.2484 0.0307 14.822
C 1.2547 1.2856 15.5428
C 1.3144 0.0262 13.446
C 1.3116 -1.1873 12.7117
C 1.3788 -1.1838 11.3222
C 1.4486 0.0171 10.6103
C 1.4536 1.2225 11.318
C 1.3883 1.235 12.7076
N 1.5205 0.0127 9.1844
C 2.7159 0.0095 8.4455
C 4.0422 0.0078 9.1261
C 2.3846 0.0057 7.1186
C 0.942 0.0063 7.0153
C 0.0464 0.0038 5.9113
C 0.1445 0.0013 4.5341
C -1.164 0.0003 3.8072
O -2.2369 0.0 4.3907
N -1.1272 -0.0 2.4161
C 0.0 -0.0 1.7766
S 0.0 0.0 0.0
N 1.2482 -0.0 2.3588
C 2.4653 -0.0003 1.5505
C 1.3941 0.0002 3.7766
O 2.5211 -0.0003 4.2456
C 0.4468 0.0109 8.3445
C -0.9458 0.0159 8.8758
H 2.0528 -1.8614 15.3648
H 1.1242 -1.0135 16.6234
H 0.2725 -1.8031 15.2756
H 1.1978 1.0868 16.6201
H 0.3949 1.9257 15.2721
H 2.1755 1.8682 15.3556
H 1.2576 -2.1442 13.2275
H 1.3778 -2.1285 10.7741
H 1.5094 2.1636 10.7665
H 1.3941 2.1951 13.2201
H 4.1787 0.896 9.7655
H 4.8416 -0.0001 8.373
H 4.17 -0.8744 9.7755
H 3.0648 0.002 6.2761
H -1.0098 0.0041 6.1999
Au -2.3191 0.0016 -0.2022
H 2.5055 -0.8963 0.9133
H 3.3135 0.0006 2.243
H 2.5048 0.8946 0.9118
H -1.681 0.0282 8.0624
H -1.1246 0.8962 9.5147
H -1.1386 -0.8722 9.4996
44
Energy=1.213533304509647
C -3.388 -0.0461 9.3399
C -2.0879 -0.0425 8.6076
C -1.8424 -0.0297 7.261
C -0.4127 -0.0318 7.0658
C 0.4054 -0.0232 5.9018
C 0.1922 -0.0121 4.5382
C -1.1174 -0.0043 3.8424
O -2.192 -0.0008 4.4222
N -1.1041 -0.0017 2.444
C 0.0 0.0 1.7756
S 0.0 0.0 0.0
N 1.2634 0.0 2.3367
C 1.4397 -0.0075 3.7421
O 2.5705 -0.0094 4.194
C 2.4431 0.0056 1.5116
C 3.0464 -1.204 1.1576
C 4.1821 -1.1802 0.3507
C 4.706 0.0381 -0.0922
C 4.1104 1.2562 0.2639
C 4.6599 2.5741 -0.2195
C 2.971 1.2217 1.0793
C 0.1645 -0.0462 8.3611
C 1.5896 -0.0547 8.7976
N -0.8502 -0.0525 9.2691
C -0.6583 -0.0671 10.7046
H -3.5161 -0.9425 9.9717
H -3.511 0.8379 9.9898
H -4.2083 -0.0364 8.6099
H -2.5701 -0.0194 6.4586
H 1.4775 -0.027 6.1224
Au -2.3101 -0.0128 -0.2423
H 2.6201 -2.1429 1.5135
H 4.665 -2.117 0.0639
H 5.597 0.0441 -0.7256
H 5.6284 2.4467 -0.7245
H 3.9685 3.0521 -0.9338
H 4.8002 3.2788 0.6156
H 2.4775 2.1484 1.3804
H 2.2677 -0.0464 7.936
H 1.83 0.8251 9.4194
H 1.8258 -0.9497 9.3989
H -0.1023 -0.9638 11.0211
H -1.6321 -0.0708 11.2065
H -0.0997 0.8214 11.0391
34
Energy=1.9188934874411234
C 1.1143 0.0355 10.9787
C 1.0876 0.0268 9.4832
C 2.1688 0.0189 8.6159
C 1.8108 0.0122 7.2515
C 0.4304 0.0149 7.047
C -0.4094 0.0111 5.8955
C -0.1978 0.0052 4.5342
C 1.1127 0.0007 3.8379
O 2.1833 -0.0019 4.4265
N 1.1027 -0.0 2.4438
C -0.0 0.0 1.7713
S 0.0 0.0 0.0
N -1.266 0.0003 2.332
C -1.4474 0.004 3.7356
O -2.5751 0.0059 4.1891
C -2.4438 -0.0011 1.5073
C -3.0119 -1.2142 1.1106
C -4.1505 -1.2207 0.3072
C -4.7152 -0.004 -0.0871
Cl -6.139 -0.0057 -1.0951
C -4.1586 1.2141 0.3145
C -3.0199 1.2105 1.1177
S -0.3998 0.0257 8.608
H 0.613 0.928 11.3877
H 2.1535 0.0327 11.3368
H 0.6043 -0.847 11.3985
H 3.2006 0.018 8.9712
H 2.4969 0.0055 6.4085
H -1.4805 0.0138 6.1314
Au 2.308 0.0009 -0.2589
H -2.5541 -2.1517 1.4299
H -4.6032 -2.1591 -0.0143
H -4.6177 2.1514 -0.0013
H -2.5684 2.1491 1.4426
17
Energy=1.1169799372236737
C -0.8513 0.3707 6.7591
O 0.2941 0.2829 5.9371
C 0.1434 0.1912 4.6053
C -1.0953 0.1711 3.9509
C -1.1641 0.0849 2.5578
Cl -2.7442 0.0417 1.8306
C -0.0 0.0 1.7692
C 1.2391 0.0 2.4422
C 1.3186 0.1041 3.8229
Cl 2.868 0.1162 4.6144
S 0.0 0.0 0.0
H -0.4856 0.4384 7.7914
H -1.449 1.2693 6.5268
H -1.4914 -0.5232 6.6595
H -2.0251 0.2269 4.513
H 2.1565 -0.0806 1.859
Au -0.8838 -2.0688 -0.5237
20
Energy=0.4401488384374125
N -3.3119 -1.1622 2.0869
C -2.5646 -0.0402 1.9099
O -3.003 0.9539 1.3499
C -1.1936 -0.1036 2.5397
C -1.1333 -0.2221 3.9324
C 0.0933 -0.2309 4.595
C 1.2541 -0.1213 3.84
C 1.2551 0.0 2.4442
C -0.0 0.0 1.7879
S 0.0 0.0 0.0
C 2.5573 0.1266 1.7022
F 2.4311 -0.1275 4.4898
H -4.2362 -1.1937 1.6708
H -2.8982 -2.0155 2.4384
H -2.0598 -0.3013 4.5055
H 0.1656 -0.3203 5.6798
Au -1.0872 1.9974 -0.4371
H 3.3915 0.2743 2.3988
H 2.5141 0.9678 0.9946
H 2.7625 -0.774 1.1018
42
Energy=1.509347226725465
O -2.1685 -0.0646 4.485
C -0.9966 -0.0206 3.8318
N -1.0994 -0.0051 2.4748
C 0.0 -0.0 1.7721
S 0.0 0.0 0.0
N 1.2382 0.0 2.3468
C 2.4271 0.0044 1.539
C 3.0745 -1.2003 1.255
C 4.2287 -1.2011 0.4749
C 4.7275 0.0122 -0.01
Cl 6.1697 0.0155 -0.9905
C 4.0913 1.2226 0.281
C 2.9387 1.2147 1.0644
C 1.4158 -0.0128 3.7773
O 2.5532 -0.0084 4.2231
C 0.1896 -0.0203 4.5295
C 0.2676 -0.0892 6.0382
N 1.0788 1.0147 6.5493
C 1.4507 0.8265 7.9425
C 2.3197 -0.419 8.1422
C 1.6832 -1.6358 7.509
C 2.0459 -2.9276 7.9196
C 1.4655 -4.0595 7.3492
C 0.4945 -3.9087 6.3544
C 0.1265 -2.6291 5.9403
C 0.7185 -1.4863 6.4966
H -2.8645 -0.0568 3.8097
Au -2.2767 -0.0413 -0.3949
H 2.6703 -2.1337 1.6494
H 4.7457 -2.1325 0.2422
H 4.5014 2.1577 -0.1013
H 2.4284 2.1477 1.3087
H -0.759 0.0486 6.4187
H 1.9302 1.0584 5.9879
H 0.528 0.738 8.544
H 1.9771 1.7265 8.2998
H 2.5112 -0.6074 9.2123
H 3.3064 -0.2415 7.6752
H 2.7987 -3.0396 8.7055
H 1.7637 -5.0563 7.6836
H 0.0246 -4.7867 5.904
H -0.6384 -2.5104 5.169
54
Energy=2.6246446641157393
C -4.336 -2.3822 13.7209
O -3.7799 -1.8115 12.5588
C -4.5679 -1.153 11.6915
C -5.9482 -0.9809 11.8956
C -6.7192 -0.2757 10.9716
C -6.1354 0.2761 9.83
C -4.768 0.1125 9.6226
C -3.964 -0.5989 10.529
C -2.5117 -0.7797 10.2575
O -1.7553 -1.5263 10.8209
O -2.1162 0.0434 9.2315
C -0.8292 -0.0068 8.7224
C -0.7281 -0.0124 7.3285
C 0.5516 -0.0006 6.7539
C 1.094 0.0002 5.3969
C 2.6048 0.0046 5.5495
O 3.4177 0.0058 4.6382
N 2.8684 0.0084 6.9022
C 1.6683 0.0063 7.6121
C 1.5851 0.0104 8.9999
C 0.2968 0.0103 9.5585
C 2.857 0.0123 9.7433
C 2.8114 0.0056 11.2453
C 4.0174 0.0141 9.0572
C 4.198 0.015 7.5484
C 4.9613 1.2843 7.1231
C 4.9732 -1.2476 7.1245
C 0.5584 -0.0009 4.1476
S 1.5345 -0.0 2.6769
C 0.0 0.0 1.7432
S 0.0 0.0 0.0
N -1.1105 0.0002 2.391
C -0.9163 -0.0006 3.7771
O -1.8149 -0.0004 4.587
H -4.7892 -1.6182 14.3775
H -5.099 -3.1429 13.4786
H -3.5059 -2.865 14.2523
H -6.4263 -1.3976 12.7806
H -7.7907 -0.1587 11.1525
H -6.7389 0.8268 9.1064
H -4.2939 0.5332 8.7371
H -1.6201 -0.0232 6.7082
H 0.1624 0.0082 10.6372
H 2.2785 0.8918 11.6291
H 3.8215 -0.0015 11.6778
H 2.2675 -0.8778 11.6192
H 4.9618 0.0129 9.6093
H 5.1051 1.2955 6.0338
H 4.4015 2.1831 7.421
H 5.9477 1.3121 7.6107
H 5.1163 -1.259 6.0351
H 4.4221 -2.1511 7.4241
H 5.9601 -1.265 7.6115
Au 2.2587 -0.0026 -0.4858
32
Energy=0.33856800046005037
Cl -1.3119 -2.5794 5.5202
C -1.862 -0.9592 5.8017
C -2.7845 -0.6283 6.857
C -3.3558 -1.4561 7.8403
C -4.2366 -0.9043 8.7615
C -4.559 0.4675 8.7184
C -4.0061 1.304 7.7537
C -3.1192 0.7497 6.8212
S -2.2979 1.5857 5.5213
C -1.5041 0.0996 5.0131
C -0.6355 0.079 3.8378
N 0.6809 0.0678 3.812
N 1.0778 -0.0 2.5107
C 0.0 -0.0 1.7488
N -1.1305 0.0644 2.5498
C -2.4941 -0.0284 2.155
C -3.227 -1.1727 2.4929
C -4.559 -1.2775 2.0849
C -5.1475 -0.2528 1.338
C -4.4056 0.8844 1.0034
C -3.0771 1.0028 1.4139
S 0.0 0.0 0.0
H -3.0971 -2.5163 7.8649
H -4.6844 -1.5381 9.5299
H -5.253 0.8816 9.4532
H -4.2567 2.3662 7.7223
H -2.7512 -1.9646 3.0732
H -5.137 -2.1647 2.3527
H -6.1881 -0.3392 1.0175
H -4.8642 1.6864 0.421
H -2.4814 1.8784 1.1547
Au -1.4334 -1.7695 -0.4357
47
Energy=2.30550997436116
C 4.8236 2.3901 -0.24
C 4.1655 1.1222 0.2379
C 4.676 -0.1265 -0.1364
C 4.0851 -1.3161 0.2956
C 2.9622 -1.2639 1.1143
C 2.44 -0.0216 1.4853
N 1.2687 0.0 2.326
C -0.0 -0.0 1.7719
S 0.0 0.0 0.0
N -1.1046 0.0121 2.4434
C -1.0982 0.0305 3.8354
O -2.1425 0.023 4.4627
C 0.2364 0.0694 4.5209
C 0.2032 0.112 5.8943
C 1.1915 0.1565 6.9072
C 2.5814 0.1797 7.0099
C 2.8939 0.2242 8.3836
C 1.6867 0.2271 9.0711
O 0.6709 0.1869 8.1907
C 1.3579 0.2638 10.4872
C 2.3768 0.3084 11.4592
C 2.0677 0.3435 12.8155
C 0.7281 0.3339 13.2034
F 0.4274 0.3676 14.5063
C -0.3035 0.2901 12.2672
C 0.0146 0.2552 10.9122
C 1.4651 0.0592 3.7264
O 2.6042 0.1019 4.1589
C 3.0247 1.1854 1.0694
C 2.4618 2.5174 1.4816
H 4.127 3.0097 -0.8292
H 5.1607 3.014 0.6045
H 5.6977 2.1728 -0.8698
H 5.5583 -0.1652 -0.7806
H 4.5012 -2.2794 -0.0065
H 2.4736 -2.1727 1.4688
Au -2.3064 0.0494 -0.2618
H -0.8193 0.1093 6.2885
H 3.2521 0.1644 6.1588
H 3.8867 0.2511 8.8248
H 3.4238 0.3157 11.152
H 2.8463 0.3781 13.5791
H -1.3391 0.2839 12.6112
H -0.7802 0.2207 10.1665
H 1.5643 2.4158 2.1028
H 3.2042 3.0956 2.0552
H 2.1931 3.1214 0.6003
34
Energy=1.580324679845842
O 0.0596 -4.2477 3.161
C -0.2468 -3.3402 4.1882
C 0.0478 -1.9093 3.7599
O -0.4357 -1.5509 2.4721
P 0.0 0.0 2.0802
O -0.7957 1.0255 2.8027
S 0.0 0.0 0.0
O 1.6017 0.0 2.4047
C 2.1114 -0.5062 3.6547
C 1.5726 -1.9185 3.7798
O 1.8881 -2.5972 4.9821
C 0.8269 -3.4905 5.2941
N 0.3133 -3.1329 6.6092
C 0.7464 -2.1182 7.452
N 0.0997 -2.0815 8.5912
C -0.8047 -3.1207 8.5129
C -0.6902 -3.7961 7.2885
N -1.4157 -4.843 6.8851
C -2.3072 -5.215 7.8071
N -2.5272 -4.6722 9.0117
C -1.7917 -3.6173 9.3985
N -2.0116 -3.0634 10.6096
H -0.3805 -3.9338 2.357
H -1.2584 -3.4951 4.5957
H -0.3405 -1.2085 4.5202
Au -1.8379 1.3877 -0.2225
H 1.7797 0.1305 4.4923
H 3.2065 -0.4691 3.5843
H 1.9184 -2.5001 2.9074
H 1.1878 -4.5307 5.3122
H 1.5548 -1.4564 7.1503
H -2.9412 -6.0711 7.5486
H -1.4605 -2.2715 10.909
H -2.7258 -3.4554 11.2079
34
Energy=1.4565814895598765
O -8.2201 0.384 -0.5475
C -6.953 0.2769 -0.0947
C -6.4883 0.9163 1.0611
C -5.1693 0.7758 1.4837
C -4.2823 -0.0245 0.7469
C -2.8958 -0.2183 1.1535
N -2.443 0.2736 2.2496
N -1.1273 0.1018 2.5633
C 0.0 0.0 1.7549
S 0.0 0.0 0.0
N 1.0729 0.0 2.5226
N 0.6803 0.0984 3.8203
C -0.6323 0.1682 3.8658
C -1.405 0.2736 5.1076
C -0.6879 0.5662 6.2858
C -1.3346 0.6679 7.5122
C -2.7188 0.4756 7.5771
Cl -3.5389 0.6054 9.114
C -3.4492 0.1787 6.4257
C -2.7946 0.0774 5.1977
C -4.747 -0.664 -0.4201
C -6.0637 -0.5263 -0.8491
O -6.5618 -1.1189 -1.9602
H -8.7263 0.9548 0.0458
H -7.1828 1.5405 1.6317
H -4.8119 1.2865 2.3783
H -2.2642 -0.8239 0.4847
Au 2.282 0.4027 -0.2087
H 0.3908 0.7102 6.2155
H -0.7756 0.8974 8.4204
H -4.5269 0.0237 6.4929
H -3.3694 -0.1551 4.3044
H -4.0609 -1.2851 -1.0047
H -5.8654 -1.6326 -2.3894
31
Energy=-0.6347225105701166
C 3.6658 3.7575 -0.9997
N 3.438 3.0704 0.2523
C 3.4954 3.5821 1.5146
C 3.1964 2.5439 2.3798
C 2.9694 1.4334 1.5268
N 3.1174 1.7696 0.2455
C 2.5541 0.0461 1.9122
N 1.1989 0.0 2.4463
C -0.0 -0.0 1.7578
S 0.0 0.0 0.0
N -1.0545 0.0111 2.5535
C -0.544 0.0418 3.8363
C 0.8727 0.0529 3.7929
N 1.7098 0.1057 4.8163
C 1.1045 0.1351 6.0111
C -0.2915 0.1176 6.1873
C -1.1689 0.0703 5.0928
C -2.663 0.0568 5.2245
H 2.7646 3.7078 -1.629
H 3.9069 4.8086 -0.7941
H 4.5021 3.293 -1.5435
H 3.7431 4.6259 1.6947
H 3.1409 2.5629 3.4652
H 3.2038 -0.3497 2.7052
H 2.6131 -0.6101 1.0325
Au -2.2509 -0.4587 -0.2747
H 1.7594 0.1782 6.8876
H -0.6957 0.1466 7.2022
H -3.1075 0.9092 4.6857
H -2.9783 0.1006 6.2766
H -3.0847 -0.8534 4.7679
29
Energy=-0.39887296484694706
S 0.0 0.0 0.0
C -0.0 0.0 1.7567
N 1.0503 -0.0 2.5558
N 0.6001 0.0216 3.85
C -0.7029 0.0273 3.8176
N -1.1547 0.0154 2.5103
C -2.4914 0.0387 2.0743
C -3.5509 0.8188 2.6005
N -4.678 0.5872 1.9338
N -4.36 -0.3048 0.9833
C -3.0572 -0.6843 1.0322
C -5.3988 -0.8511 0.1214
C -5.951 -2.1677 0.626
C -5.9559 -3.3014 -0.1942
C -6.4719 -4.514 0.2739
C -6.9811 -4.6014 1.5708
C -6.9749 -3.472 2.3974
C -6.465 -2.2614 1.9282
Au 2.3128 0.0466 -0.2012
H -1.378 0.0253 4.6716
H -3.522 1.535 3.4202
H -2.6301 -1.4123 0.3483
H -4.9832 -0.9693 -0.8895
H -6.1833 -0.0824 0.0794
H -5.5526 -3.2374 -1.2088
H -6.4702 -5.3924 -0.3759
H -7.3815 -5.5485 1.9399
H -7.3719 -3.5363 3.4133
H -6.4544 -1.378 2.5713
39
Energy=1.3669454849366098
C 6.7387 2.1489 14.4316
C 6.191 1.7602 13.0994
C 4.9207 1.9035 12.5835
C 4.9291 1.3606 11.2514
C 6.2539 0.8937 11.0084
N 6.9911 1.1513 12.1469
C 6.6111 0.3018 9.7941
C 5.6435 0.1689 8.8026
C 4.3203 0.6256 9.0249
C 3.9652 1.2174 10.2423
N 3.306 0.5028 8.05
C 3.3794 0.0061 6.7756
O 4.4035 -0.3994 6.2475
C 2.0681 0.0111 6.0261
C 0.8068 -0.0066 6.6644
C -0.3562 -0.0116 5.9088
C -0.2858 -0.0013 4.5077
C 0.9718 -0.0008 3.8519
C 2.1409 -0.0031 4.6363
N 1.0863 -0.0 2.4739
C 0.0 0.0 1.7696
N -1.2595 0.0002 2.3256
C -1.5171 -0.0014 3.7054
O -2.6573 -0.0024 4.1256
S 0.0 0.0 0.0
H 7.1248 1.2745 14.9839
H 5.9554 2.6156 15.0438
H 7.5689 2.8702 14.3357
H 4.0765 2.3497 13.1046
H 7.9694 0.9291 12.2699
H 7.6287 -0.0528 9.614
H 5.8856 -0.2803 7.8436
H 2.9411 1.5657 10.4067
H 2.4153 0.8999 8.3197
H 0.734 -0.054 7.753
H -1.3425 -0.0335 6.3758
H 3.1157 -0.0174 4.1494
H -2.0825 -0.0009 1.7288
Au 2.2951 -0.0188 -0.3058
15
Energy=1.4466622414233399
Cl 0.1901 -2.0301 6.6435
C 0.5246 -0.3637 6.0443
O 1.0036 0.4593 6.7503
C 0.2671 -0.2234 4.574
C 1.403 -0.1156 3.7627
C 1.2677 -0.0 2.3871
C 0.0 -0.0 1.7763
C -1.1539 -0.0826 2.6003
C -1.0147 -0.1786 3.9985
I -2.6838 -0.1727 5.3171
I -3.0746 -0.0353 1.704
S 0.0 0.0 0.0
H 2.3934 -0.1213 4.2217
H 2.1493 0.0944 1.752
Au -1.0588 1.9994 -0.4982
16
Energy=0.910325368593883
S 0.0 0.0 0.0
C 0.0 0.0 1.8555
C 1.4474 -0.0 2.2622
C 2.1507 1.2056 2.41
C 3.5037 1.2038 2.7451
C 4.1677 -0.0076 2.9237
C 3.4873 -1.2203 2.7676
C 2.1331 -1.2118 2.4317
Br 4.4168 -2.8533 3.0148
F 5.461 -0.003 3.2466
Au -2.2255 0.0069 -0.5461
H -0.5156 0.8953 2.2266
H -0.5186 -0.8933 2.227
H 1.6315 2.1546 2.2602
H 4.0659 2.1307 2.8722
H 1.61 -2.1605 2.3008
15
Energy=1.1316350855436603
Cl -3.0314 1.6614 1.3294
C -2.5345 -0.0422 1.6849
O -3.2219 -0.9583 1.393
C -1.2406 -0.0828 2.4421
C -1.2853 -0.1869 3.8317
F -2.475 -0.259 4.4373
C -0.1229 -0.1977 4.5957
C 1.1095 -0.0969 3.9516
C 1.1748 0.0 2.5583
C -0.0 0.0 1.7756
S 0.0 0.0 0.0
Br 2.8829 0.169 1.7534
H -0.1959 -0.2789 5.6812
H 2.0314 -0.0952 4.5339
Au 0.3287 2.2463 -0.425
16
Energy=-0.27090068239991316
N 3.4078 -0.0004 0.9333
C 2.4611 -0.0002 1.6051
C 1.2748 0.0 2.4066
C 0.0 0.0 1.7697
S 0.0 0.0 0.0
C -1.149 0.0002 2.5719
C -1.0173 0.0002 3.9538
C 0.2125 0.0002 4.6069
C 1.3585 0.0002 3.8168
Br 3.0511 0.0002 4.6633
N -2.253 0.0002 4.7754
O -2.1184 0.0004 5.9857
O -3.3188 0.0 4.1835
Au -2.2167 -0.0037 -0.6205
H -2.1465 0.0002 2.1379
H 0.2577 0.0003 5.6935
24
Energy=0.6005040158174862
Cl -5.4316 -0.4035 4.4397
C -3.8882 -0.2838 3.5595
C -2.6727 -0.2826 4.4974
O -2.8152 -0.359 5.6966
C -1.3229 -0.1826 3.8483
C -1.2274 -0.093 2.4498
C -0.0 -0.0 1.7851
S 0.0 0.0 0.0
C 1.1794 -0.0 2.5558
C 1.0892 -0.0795 3.9444
C -0.1333 -0.1716 4.6259
C -0.1111 -0.2532 6.1274
C 2.5337 0.1275 1.903
F 3.5142 -0.3264 2.726
F 2.8051 1.4463 1.6509
H -3.825 -1.131 2.8617
H -3.9049 0.6394 2.9628
H -2.1223 -0.0904 1.8292
Au 0.4966 2.1956 -0.5092
H 2.0151 -0.0837 4.5215
H -0.5978 -1.1713 6.4874
H 0.9252 -0.226 6.493
H -0.6769 0.5722 6.5833
H 2.5862 -0.4167 0.9476
26
Energy=2.887457362586756
C 6.9209 -0.1543 6.5566
O 5.6933 -0.271 5.8704
C 4.5436 0.1192 6.4991
C 4.4504 0.6453 7.7837
C 3.185 0.9787 8.2938
C 2.049 0.7904 7.5224
C 2.1189 0.2786 6.2019
C 0.8701 0.1467 5.466
C 0.543 0.0279 4.1587
S 1.5199 -0.0 2.6901
C 0.0 -0.0 1.7488
S 0.0 0.0 0.0
N -1.1171 -0.014 2.3821
C -0.9336 -0.0041 3.7757
O -1.83 -0.0073 4.5853
C 3.388 -0.0739 5.7093
O 3.5328 -0.6288 4.4881
H 7.1381 0.8964 6.8171
H 6.9254 -0.7607 7.4793
H 7.6995 -0.5252 5.8777
H 5.3421 0.7903 8.3933
H 3.1019 1.3839 9.3039
H 1.0668 1.0498 7.9225
H -0.0274 0.2043 6.0937
Au 2.2522 0.0356 -0.5021
H 4.482 -0.791 4.3559
31
Energy=1.6037340190684155
O 4.5105 0.4186 6.2654
C 3.3764 -0.0237 6.8514
O 3.3815 -0.4005 7.9924
C 2.1353 -0.0072 5.9994
C 0.889 -0.044 6.6614
C -0.284 -0.0373 5.9248
C -0.2354 -0.0153 4.5202
C 1.005 -0.0028 3.8421
C 2.1896 0.001 4.6078
N 1.0936 -0.0 2.467
C -0.0 -0.0 1.7738
N -1.269 -0.0011 2.336
C -1.4797 -0.0121 3.7419
O -2.6041 -0.0183 4.1962
C -2.4389 0.0039 1.4997
C -3.0317 -1.2043 1.1256
C -4.1647 -1.1921 0.315
C -4.6968 0.0228 -0.1093
C -4.1093 1.2368 0.2718
C -2.9769 1.2242 1.0849
Cl -4.7991 2.7324 -0.2726
F -5.7769 0.0297 -0.886
S 0.0 0.0 0.0
H 4.3117 0.8072 5.4021
H 0.8812 -0.0752 7.7514
H -1.2633 -0.0529 6.4063
H 3.1327 -0.0211 4.0569
H -2.6014 -2.1461 1.4674
H -4.6532 -2.1155 0.0
H -2.5149 2.1637 1.3868
Au 2.2864 -0.0261 -0.3494
39
Energy=-1.2554250248187386
S 0.0 0.0 0.0
C 0.0 0.0 1.8434
C 1.3823 0.0 2.5
C 1.2982 0.2517 4.0142
C 1.4288 1.7313 4.4429
C 0.7051 2.0215 5.7669
C -0.7321 2.3181 5.3113
C -0.546 3.113 4.0089
N 0.7783 2.6926 3.5345
C 1.5105 3.3917 2.6281
O 2.688 3.1974 2.3797
O 0.742 4.3398 2.0271
C 1.3059 5.2796 1.0728
C 2.3916 6.1276 1.7411
C 1.8684 4.5388 -0.1474
C 0.1068 6.1364 0.6744
Au 0.7765 2.1312 -0.3411
H -0.5482 -0.9174 2.1188
H -0.6022 0.8463 2.2013
H 1.8681 -0.967 2.296
H 2.0207 0.7644 2.0319
H 2.0951 -0.2992 4.5397
H 0.3488 -0.1638 4.396
H 2.4954 1.9909 4.4762
H 1.1437 2.9114 6.2471
H 0.7719 1.1852 6.4781
H -1.3191 2.8745 6.056
H -1.2672 1.3774 5.1084
H -1.3272 2.9008 3.2621
H -0.5523 4.2004 4.1853
H 1.9832 6.6109 2.6415
H 2.7294 6.9163 1.0518
H 3.2508 5.5093 2.0282
H 1.0158 4.0505 -0.7098
H 2.6647 3.8427 0.1423
H 2.2722 5.2442 -0.889
H -0.687 5.5083 0.2432
H 0.4052 6.8907 -0.0689
H -0.302 6.6535 1.5545
32
Energy=-0.23717040914924128
N -3.4682 -0.0083 1.1037
C -2.4687 -0.0056 1.6963
C -1.2479 -0.0016 2.443
C 0.0 0.0 1.7692
S 0.0 0.0 0.0
N 1.1471 0.0 2.4425
C 1.1496 0.0083 3.7797
C -0.0402 0.0137 4.5402
C -1.2686 0.0027 3.8549
C -2.5835 0.0143 4.5842
C 0.0014 0.0316 6.0578
C -0.5905 1.2752 6.6888
C -0.1232 2.5452 6.3225
F 0.8808 2.6162 5.4306
C -0.6314 3.7338 6.8318
C -1.6581 3.6705 7.7752
C -2.1478 2.4347 8.1956
C -1.6108 1.2616 7.6561
Cl -2.2591 -0.2621 8.233
C 2.5121 0.0177 4.424
Au 2.281 0.0098 -0.3734
H -2.8097 1.0294 4.9491
H -3.4093 -0.2955 3.9315
H -2.5672 -0.6408 5.4653
H 1.04 -0.0672 6.3989
H -0.5312 -0.8421 6.4561
H -0.2145 4.6808 6.4868
H -2.0756 4.59 8.1902
H -2.9432 2.3661 8.9378
H 3.2791 0.0061 3.6404
H 2.6616 -0.8593 5.0742
H 2.6466 0.9185 5.0419
23
Energy=1.2596493191610105
C -2.1289 0.0563 6.0942
O -2.1783 0.0524 4.6839
C -1.0141 0.0351 3.9918
C -1.133 0.0417 2.5925
C -0.0 -0.0 1.7828
S 0.0 0.0 0.0
C 1.291 0.0 2.3675
C 1.4093 0.025 3.7692
C 0.2512 0.0188 4.5764
C 2.6812 0.0442 4.5469
O 2.7835 -0.317 5.6791
Cl 4.1112 0.7695 3.7325
O 2.3548 -0.0075 1.5181
C 2.9802 -1.2668 1.3
H -1.6045 0.9479 6.4814
H -1.6302 -0.8472 6.4876
H -3.1694 0.0726 6.4433
H -2.1335 0.0667 2.1604
Au -2.098 -0.7353 -0.5859
H 0.3885 0.0138 5.6552
H 3.421 -1.6608 2.2308
H 3.7829 -1.0971 0.5708
H 2.2608 -1.9955 0.8904
21
Energy=2.5538064487933627
S 0.0 0.0 0.0
C -0.0 -0.0 1.7447
N -1.1037 -0.0 2.3941
C -0.9148 0.0001 3.7898
O -1.8042 0.0 4.6046
C 0.561 0.0003 4.159
S 1.5308 -0.0 2.6899
C 0.9411 0.0013 5.4561
C 2.2584 0.0021 6.0728